

; RUN CONTROL PARAMETERS 
integrator              = md        ; leap-frog integrator
nsteps                  = 5000000     ; 2 * 500000 = 10000 ps
dt                      = 0.002     ; 2 fs

; OUTPUT CONTROL
;nstxout                 = 500       ; save coordinates every 1.0 ps
;nstvout                 = 500       ; save velocities every 1.0 ps
nstenergy               = 5000      ; save energies every 1.0 ns
nstlog                  = 500       ; update log file every 1.0 ps
nstxout-compressed      = 50000     ; save compressed coordinates every 100.0 ps

; CONSTRAINS 
continuation            = yes        ; first dynamics run
constraint_algorithm    = lincs     ; holonomic constraints 
constraints             = h-bonds   ; bonds involving H are constrained
lincs_iter              = 1         ; accuracy of LINCS
lincs_order             = 4         ; also related to accuracy
comm_mode               = linear

; NONBONDEND INTERACTIONS 
cutoff-scheme           = Verlet    ; Buffered neighbor searching
ns_type                 = grid      ; search neighboring grid cells
rcoulomb                = 1.2       ; short-range electrostatic cutoff (in nm)
rvdw                    = 1.2       ; short-range van der Waals cutoff (in nm)
DispCorr                = EnerPres  ; account for cut-off vdW scheme
vdw-modifier            = Force-switch
vdwtype                 = Cut-off
rvdw_switch             = 1.0

; ELECTROSTATIC
coulombtype             = PME       ; Particle Mesh Ewald for long-range electrostatics
fourierspacing          = 0.16


; TEMPERATURE CONTROLL
tcoupl                  = Nose-Hoover             ; modified Berendsen thermostat
tc-grps                 = System             ; two coupling groups - more accurate
tau_t                   = 2.0                 ; time constant, in ps
ref_t                   = 300                ; reference temperature, one for each group, in K

; PRESSURE CONTROL
pcoupl                  = Parrinello-Rahman     ; Pressure coupling on in NPT
pcoupltype              = isotropic             ; uniform scaling of box vectors
tau_p                   = 5.0                   ; time constant, in ps
ref_p                   = 1.0                   ; reference pressure, in bar
compressibility         = 4.5e-5                ; isothermal compressibility of water, bar^-1
