[ moleculetype ]
; Name    nrexcl
polySia 3

[ atoms ]
;   nr       type      resnr   residue      atom  cgnr    charge     mass
; Residue 1 ROH q=-0.194
; ROH for aglycon
     1         Ho      1    ROH    HO1      1     0.4450      1.008
     2         Oh      1    ROH     O1      2    -0.6390     15.999
; Residue 2 8SA q=-1.000
; 
     3         Cy      2    8SA     C2      3     0.2370     12.011
     4          C      2    8SA     C1      4     0.7890     12.011
     5         O2      2    8SA    O1A      5    -0.7610     15.999
     6         O2      2    8SA    O1B      6    -0.7610     15.999
     7         Cg      2    8SA     C3      7     0.0060     12.011
     8         Hc      2    8SA    H3E      8     0.0000      1.008
     9         Hc      2    8SA    H3A      9     0.0000      1.008
    10         Cg      2    8SA     C4     10     0.3320     12.011
    11         H1      2    8SA     H4     11     0.0000      1.008
    12         Oh      2    8SA     O4     12    -0.7620     15.999
    13         Ho      2    8SA    H4O     13     0.4150      1.008
    14         Cg      2    8SA     C5     14     0.3080     12.011
    15         H1      2    8SA     H5     15     0.0000      1.008
    16         Ng      2    8SA     N5     16    -0.6290     14.007
    17          H      2    8SA    H5N     17     0.2800      1.008
    18          C      2    8SA    C5N     18     0.6320     12.011
    19         Cg      2    8SA    CME     19    -0.0030     12.011
    20         Hc      2    8SA    H3M     20     0.0000      1.008
    21         Hc      2    8SA    H2M     21     0.0000      1.008
    22         Hc      2    8SA    H1M     22     0.0000      1.008
    23          O      2    8SA    O5N     23    -0.5930     15.999
    24         Cg      2    8SA     C6     24     0.2200     12.011
    25         H1      2    8SA     H6     25     0.0000      1.008
    26         Oy      2    8SA     O6     26    -0.4030     15.999
    27         Cg      2    8SA     C7     27     0.1110     12.011
    28         H1      2    8SA     H7     28     0.0000      1.008
    29         Oh      2    8SA     O7     29    -0.7210     15.999
    30         Ho      2    8SA    H7O     30     0.4350      1.008
    31         Cg      2    8SA     C8     31     0.4920     12.011
    32         H1      2    8SA     H8     32     0.0000      1.008
    33         Cg      2    8SA     C9     33     0.1780     12.011
    34         H1      2    8SA    H9S     34     0.0000      1.008
    35         H1      2    8SA    H9R     35     0.0000      1.008
    36         Oh      2    8SA     O9     36    -0.6890     15.999
    37         Ho      2    8SA    H9O     37     0.4080      1.008
    38         Os      2    8SA     O8     38    -0.5210     15.999
; Residue 3 8SA q=-1.000
; 
    39         Cy      3    8SA     C2     39     0.2370     12.011
    40          C      3    8SA     C1     40     0.7890     12.011
    41         O2      3    8SA    O1A     41    -0.7610     15.999
    42         O2      3    8SA    O1B     42    -0.7610     15.999
    43         Cg      3    8SA     C3     43     0.0060     12.011
    44         Hc      3    8SA    H3E     44     0.0000      1.008
    45         Hc      3    8SA    H3A     45     0.0000      1.008
    46         Cg      3    8SA     C4     46     0.3320     12.011
    47         H1      3    8SA     H4     47     0.0000      1.008
    48         Oh      3    8SA     O4     48    -0.7620     15.999
    49         Ho      3    8SA    H4O     49     0.4150      1.008
    50         Cg      3    8SA     C5     50     0.3080     12.011
    51         H1      3    8SA     H5     51     0.0000      1.008
    52         Ng      3    8SA     N5     52    -0.6290     14.007
    53          H      3    8SA    H5N     53     0.2800      1.008
    54          C      3    8SA    C5N     54     0.6320     12.011
    55         Cg      3    8SA    CME     55    -0.0030     12.011
    56         Hc      3    8SA    H3M     56     0.0000      1.008
    57         Hc      3    8SA    H2M     57     0.0000      1.008
    58         Hc      3    8SA    H1M     58     0.0000      1.008
    59          O      3    8SA    O5N     59    -0.5930     15.999
    60         Cg      3    8SA     C6     60     0.2200     12.011
    61         H1      3    8SA     H6     61     0.0000      1.008
    62         Oy      3    8SA     O6     62    -0.4030     15.999
    63         Cg      3    8SA     C7     63     0.1110     12.011
    64         H1      3    8SA     H7     64     0.0000      1.008
    65         Oh      3    8SA     O7     65    -0.7210     15.999
    66         Ho      3    8SA    H7O     66     0.4350      1.008
    67         Cg      3    8SA     C8     67     0.4920     12.011
    68         H1      3    8SA     H8     68     0.0000      1.008
    69         Cg      3    8SA     C9     69     0.1780     12.011
    70         H1      3    8SA    H9S     70     0.0000      1.008
    71         H1      3    8SA    H9R     71     0.0000      1.008
    72         Oh      3    8SA     O9     72    -0.6890     15.999
    73         Ho      3    8SA    H9O     73     0.4080      1.008
    74         Os      3    8SA     O8     74    -0.5210     15.999
; Residue 4 8SA q=-1.000
; 
    75         Cy      4    8SA     C2     75     0.2370     12.011
    76          C      4    8SA     C1     76     0.7890     12.011
    77         O2      4    8SA    O1A     77    -0.7610     15.999
    78         O2      4    8SA    O1B     78    -0.7610     15.999
    79         Cg      4    8SA     C3     79     0.0060     12.011
    80         Hc      4    8SA    H3E     80     0.0000      1.008
    81         Hc      4    8SA    H3A     81     0.0000      1.008
    82         Cg      4    8SA     C4     82     0.3320     12.011
    83         H1      4    8SA     H4     83     0.0000      1.008
    84         Oh      4    8SA     O4     84    -0.7620     15.999
    85         Ho      4    8SA    H4O     85     0.4150      1.008
    86         Cg      4    8SA     C5     86     0.3080     12.011
    87         H1      4    8SA     H5     87     0.0000      1.008
    88         Ng      4    8SA     N5     88    -0.6290     14.007
    89          H      4    8SA    H5N     89     0.2800      1.008
    90          C      4    8SA    C5N     90     0.6320     12.011
    91         Cg      4    8SA    CME     91    -0.0030     12.011
    92         Hc      4    8SA    H3M     92     0.0000      1.008
    93         Hc      4    8SA    H2M     93     0.0000      1.008
    94         Hc      4    8SA    H1M     94     0.0000      1.008
    95          O      4    8SA    O5N     95    -0.5930     15.999
    96         Cg      4    8SA     C6     96     0.2200     12.011
    97         H1      4    8SA     H6     97     0.0000      1.008
    98         Oy      4    8SA     O6     98    -0.4030     15.999
    99         Cg      4    8SA     C7     99     0.1110     12.011
   100         H1      4    8SA     H7    100     0.0000      1.008
   101         Oh      4    8SA     O7    101    -0.7210     15.999
   102         Ho      4    8SA    H7O    102     0.4350      1.008
   103         Cg      4    8SA     C8    103     0.4920     12.011
   104         H1      4    8SA     H8    104     0.0000      1.008
   105         Cg      4    8SA     C9    105     0.1780     12.011
   106         H1      4    8SA    H9S    106     0.0000      1.008
   107         H1      4    8SA    H9R    107     0.0000      1.008
   108         Oh      4    8SA     O9    108    -0.6890     15.999
   109         Ho      4    8SA    H9O    109     0.4080      1.008
   110         Os      4    8SA     O8    110    -0.5210     15.999
; Residue 5 8SA q=-1.000
; 
   111         Cy      5    8SA     C2    111     0.2370     12.011
   112          C      5    8SA     C1    112     0.7890     12.011
   113         O2      5    8SA    O1A    113    -0.7610     15.999
   114         O2      5    8SA    O1B    114    -0.7610     15.999
   115         Cg      5    8SA     C3    115     0.0060     12.011
   116         Hc      5    8SA    H3E    116     0.0000      1.008
   117         Hc      5    8SA    H3A    117     0.0000      1.008
   118         Cg      5    8SA     C4    118     0.3320     12.011
   119         H1      5    8SA     H4    119     0.0000      1.008
   120         Oh      5    8SA     O4    120    -0.7620     15.999
   121         Ho      5    8SA    H4O    121     0.4150      1.008
   122         Cg      5    8SA     C5    122     0.3080     12.011
   123         H1      5    8SA     H5    123     0.0000      1.008
   124         Ng      5    8SA     N5    124    -0.6290     14.007
   125          H      5    8SA    H5N    125     0.2800      1.008
   126          C      5    8SA    C5N    126     0.6320     12.011
   127         Cg      5    8SA    CME    127    -0.0030     12.011
   128         Hc      5    8SA    H3M    128     0.0000      1.008
   129         Hc      5    8SA    H2M    129     0.0000      1.008
   130         Hc      5    8SA    H1M    130     0.0000      1.008
   131          O      5    8SA    O5N    131    -0.5930     15.999
   132         Cg      5    8SA     C6    132     0.2200     12.011
   133         H1      5    8SA     H6    133     0.0000      1.008
   134         Oy      5    8SA     O6    134    -0.4030     15.999
   135         Cg      5    8SA     C7    135     0.1110     12.011
   136         H1      5    8SA     H7    136     0.0000      1.008
   137         Oh      5    8SA     O7    137    -0.7210     15.999
   138         Ho      5    8SA    H7O    138     0.4350      1.008
   139         Cg      5    8SA     C8    139     0.4920     12.011
   140         H1      5    8SA     H8    140     0.0000      1.008
   141         Cg      5    8SA     C9    141     0.1780     12.011
   142         H1      5    8SA    H9S    142     0.0000      1.008
   143         H1      5    8SA    H9R    143     0.0000      1.008
   144         Oh      5    8SA     O9    144    -0.6890     15.999
   145         Ho      5    8SA    H9O    145     0.4080      1.008
   146         Os      5    8SA     O8    146    -0.5210     15.999
; Residue 6 0SA q=-0.806
; 
   147         Cy      6    0SA     C2    147     0.2370     12.011
   148          C      6    0SA     C1    148     0.7890     12.011
   149         O2      6    0SA    O1A    149    -0.7610     15.999
   150         O2      6    0SA    O1B    150    -0.7610     15.999
   151         Cg      6    0SA     C3    151     0.0060     12.011
   152         Hc      6    0SA    H3E    152     0.0000      1.008
   153         Hc      6    0SA    H3A    153     0.0000      1.008
   154         Cg      6    0SA     C4    154     0.3320     12.011
   155         H1      6    0SA     H4    155     0.0000      1.008
   156         Cg      6    0SA     C5    156     0.3080     12.011
   157         H1      6    0SA     H5    157     0.0000      1.008
   158         Cg      6    0SA     C6    158     0.2200     12.011
   159         H1      6    0SA     H6    159     0.0000      1.008
   160         Cg      6    0SA     C7    160     0.1110     12.011
   161         H1      6    0SA     H7    161     0.0000      1.008
   162         Cg      6    0SA     C8    162     0.4920     12.011
   163         H1      6    0SA     H8    163     0.0000      1.008
   164         Cg      6    0SA     C9    164     0.1780     12.011
   165         H1      6    0SA    H9S    165     0.0000      1.008
   166         H1      6    0SA    H9R    166     0.0000      1.008
   167         Oh      6    0SA     O9    167    -0.6890     15.999
   168         Ho      6    0SA    H9O    168     0.4080      1.008
   169         Oh      6    0SA     O8    169    -0.7390     15.999
   170         Ho      6    0SA    H8O    170     0.4120      1.008
   171         Oh      6    0SA     O7    171    -0.7210     15.999
   172         Ho      6    0SA    H7O    172     0.4350      1.008
   173         Oy      6    0SA     O6    173    -0.4030     15.999
   174         Ng      6    0SA     N5    174    -0.6290     14.007
   175          H      6    0SA    H5N    175     0.2800      1.008
   176          C      6    0SA    C5N    176     0.6320     12.011
   177         Cg      6    0SA    CME    177    -0.0030     12.011
   178         Hc      6    0SA    H3M    178     0.0000      1.008
   179         Hc      6    0SA    H2M    179     0.0000      1.008
   180         Hc      6    0SA    H1M    180     0.0000      1.008
   181          O      6    0SA    O5N    181    -0.5930     15.999
   182         Oh      6    0SA     O4    182    -0.7620     15.999
   183         Ho      6    0SA    H4O    183     0.4150      1.008

[ bonds ]
;   ai     aj   funct   c0   c1
     1      2      1
     2      3      1
     3      4      1
     3      7      1
     3     26      1
     4      5      1
     4      6      1
     7      8      1
     7      9      1
     7     10      1
    10     11      1
    10     12      1
    10     14      1
    12     13      1
    14     15      1
    14     16      1
    14     24      1
    16     17      1
    16     18      1
    18     19      1
    18     23      1
    19     20      1
    19     21      1
    19     22      1
    24     25      1
    24     26      1
    24     27      1
    27     28      1
    27     29      1
    27     31      1
    29     30      1
    31     32      1
    31     33      1
    31     38      1
    33     34      1
    33     35      1
    33     36      1
    36     37      1
    38     39      1
    39     40      1
    39     43      1
    39     62      1
    40     41      1
    40     42      1
    43     44      1
    43     45      1
    43     46      1
    46     47      1
    46     48      1
    46     50      1
    48     49      1
    50     51      1
    50     52      1
    50     60      1
    52     53      1
    52     54      1
    54     55      1
    54     59      1
    55     56      1
    55     57      1
    55     58      1
    60     61      1
    60     62      1
    60     63      1
    63     64      1
    63     65      1
    63     67      1
    65     66      1
    67     68      1
    67     69      1
    67     74      1
    69     70      1
    69     71      1
    69     72      1
    72     73      1
    74     75      1
    75     76      1
    75     79      1
    75     98      1
    76     77      1
    76     78      1
    79     80      1
    79     81      1
    79     82      1
    82     83      1
    82     84      1
    82     86      1
    84     85      1
    86     87      1
    86     88      1
    86     96      1
    88     89      1
    88     90      1
    90     91      1
    90     95      1
    91     92      1
    91     93      1
    91     94      1
    96     97      1
    96     98      1
    96     99      1
    99    100      1
    99    101      1
    99    103      1
   101    102      1
   103    104      1
   103    105      1
   103    110      1
   105    106      1
   105    107      1
   105    108      1
   108    109      1
   110    111      1
   111    112      1
   111    115      1
   111    134      1
   112    113      1
   112    114      1
   115    116      1
   115    117      1
   115    118      1
   118    119      1
   118    120      1
   118    122      1
   120    121      1
   122    123      1
   122    124      1
   122    132      1
   124    125      1
   124    126      1
   126    127      1
   126    131      1
   127    128      1
   127    129      1
   127    130      1
   132    133      1
   132    134      1
   132    135      1
   135    136      1
   135    137      1
   135    139      1
   137    138      1
   139    140      1
   139    141      1
   139    146      1
   141    142      1
   141    143      1
   141    144      1
   144    145      1
   146    147      1
   147    148      1
   147    151      1
   147    173      1
   148    149      1
   148    150      1
   151    152      1
   151    153      1
   151    154      1
   154    155      1
   154    156      1
   154    182      1
   156    157      1
   156    158      1
   156    174      1
   158    159      1
   158    160      1
   158    173      1
   160    161      1
   160    162      1
   160    171      1
   162    163      1
   162    164      1
   162    169      1
   164    165      1
   164    166      1
   164    167      1
   167    168      1
   169    170      1
   171    172      1
   174    175      1
   174    176      1
   176    177      1
   176    181      1
   177    178      1
   177    179      1
   177    180      1
   182    183      1

[ pairs ]
;   ai     aj   funct   c0   c1
     1      4      1
     1      7      2   1.0000    0.4450    0.0060   1.87801e-01   2.39696e-01
     1     26      2   1.0000    0.4450   -0.4030   1.67818e-01   2.98797e-01
     2      5      1
     2      6      1
     2      8      2   1.0000   -0.6390    0.0000   2.85800e-01   2.40472e-01
     2      9      2   1.0000   -0.6390    0.0000   2.85800e-01   2.40472e-01
     2     10      2   1.0000   -0.6390    0.3320   3.23307e-01   6.34780e-01
     2     24      2   1.0000   -0.6390    0.2200   3.23307e-01   6.34780e-01
     3     11      1
     3     12      2   1.0000    0.2370   -0.7620   3.23307e-01   6.34780e-01
     3     14      2   1.0000    0.2370    0.3080   3.39967e-01   4.57730e-01
     3     25      1
     3     27      2   1.0000    0.2370    0.1110   3.39967e-01   4.57730e-01
     4      8      1
     4      9      1
     4     10      1
     4     24      1
     5      7      1
     5     26      1
     6      7      1
     6     26      1
     7     13      2   1.0000    0.0060    0.4150   1.87801e-01   2.39696e-01
     7     15      1
     7     16      2   1.0000    0.0060   -0.6290   3.32484e-01   5.70591e-01
     7     24      2   1.0000    0.0060    0.2200   3.39967e-01   4.57730e-01
     8     11      1
     8     12      2   1.0000    0.0000   -0.7620   2.85800e-01   2.40472e-01
     8     14      2   1.0000    0.0000    0.3080   3.02460e-01   1.73401e-01
     8     26      2   1.0000    0.0000   -0.4030   2.82477e-01   2.16155e-01
     9     11      1
     9     12      2   1.0000    0.0000   -0.7620   2.85800e-01   2.40472e-01
     9     14      2   1.0000    0.0000    0.3080   3.02460e-01   1.73401e-01
     9     26      2   1.0000    0.0000   -0.4030   2.82477e-01   2.16155e-01
    10     17      1
    10     18      1
    10     25      1
    10     26      2   1.0000    0.3320   -0.4030   3.19984e-01   5.70591e-01
    10     27      2   1.0000    0.3320    0.1110   3.39967e-01   4.57730e-01
    11     13      1
    11     15      1
    11     16      1
    11     24      1
    12     15      1
    12     16      2   1.0000   -0.7620   -0.6290   3.15824e-01   7.91296e-01
    12     24      2   1.0000   -0.7620    0.2200   3.23307e-01   6.34780e-01
    13     14      2   1.0000    0.4150    0.3080   1.87801e-01   2.39696e-01
    14     19      2   1.0000    0.3080   -0.0030   3.39967e-01   4.57730e-01
    14     23      1
    14     28      1
    14     29      2   1.0000    0.3080   -0.7210   3.23307e-01   6.34780e-01
    14     31      2   1.0000    0.3080    0.4920   3.39967e-01   4.57730e-01
    15     17      1
    15     18      1
    15     25      1
    15     26      1
    15     27      1
    16     20      2   1.0000   -0.6290    0.0000   2.94976e-01   2.16155e-01
    16     21      2   1.0000   -0.6290    0.0000   2.94976e-01   2.16155e-01
    16     22      2   1.0000   -0.6290    0.0000   2.94976e-01   2.16155e-01
    16     25      1
    16     26      2   1.0000   -0.6290   -0.4030   3.12501e-01   7.11280e-01
    16     27      2   1.0000   -0.6290    0.1110   3.32484e-01   5.70591e-01
    17     19      1
    17     23      1
    17     24      1
    18     24      1
    20     23      1
    21     23      1
    22     23      1
    24     30      2   1.0000    0.2200    0.4350   1.87801e-01   2.39696e-01
    24     32      1
    24     33      2   1.0000    0.2200    0.1780   3.39967e-01   4.57730e-01
    24     38      2   1.0000    0.2200   -0.5210   3.19984e-01   5.70591e-01
    25     28      1
    25     29      1
    25     31      1
    26     28      1
    26     29      2   1.0000   -0.4030   -0.7210   3.03324e-01   7.91296e-01
    26     31      2   1.0000   -0.4030    0.4920   3.19984e-01   5.70591e-01
    27     34      1
    27     35      1
    27     36      2   1.0000    0.1110   -0.6890   3.23307e-01   6.34780e-01
    27     39      2   1.0000    0.1110    0.2370   3.39967e-01   4.57730e-01
    28     30      1
    28     32      1
    28     33      1
    28     38      1
    29     32      1
    29     33      2   1.0000   -0.7210    0.1780   3.23307e-01   6.34780e-01
    29     38      2   1.0000   -0.7210   -0.5210   3.03324e-01   7.91296e-01
    30     31      2   1.0000    0.4350    0.4920   1.87801e-01   2.39696e-01
    31     37      2   1.0000    0.4920    0.4080   1.87801e-01   2.39696e-01
    31     40      1
    31     43      2   1.0000    0.4920    0.0060   3.39967e-01   4.57730e-01
    31     62      2   1.0000    0.4920   -0.4030   3.19984e-01   5.70591e-01
    32     34      1
    32     35      1
    32     36      1
    32     39      1
    33     39      2   1.0000    0.1780    0.2370   3.39967e-01   4.57730e-01
    34     37      1
    34     38      1
    35     37      1
    35     38      1
    36     38      2   1.0000   -0.6890   -0.5210   3.03324e-01   7.91296e-01
    38     41      1
    38     42      1
    38     44      2   1.0000   -0.5210    0.0000   2.82477e-01   2.16155e-01
    38     45      2   1.0000   -0.5210    0.0000   2.82477e-01   2.16155e-01
    38     46      2   1.0000   -0.5210    0.3320   3.19984e-01   5.70591e-01
    38     60      2   1.0000   -0.5210    0.2200   3.19984e-01   5.70591e-01
    39     47      1
    39     48      2   1.0000    0.2370   -0.7620   3.23307e-01   6.34780e-01
    39     50      2   1.0000    0.2370    0.3080   3.39967e-01   4.57730e-01
    39     61      1
    39     63      2   1.0000    0.2370    0.1110   3.39967e-01   4.57730e-01
    40     44      1
    40     45      1
    40     46      1
    40     60      1
    41     43      1
    41     62      1
    42     43      1
    42     62      1
    43     49      2   1.0000    0.0060    0.4150   1.87801e-01   2.39696e-01
    43     51      1
    43     52      2   1.0000    0.0060   -0.6290   3.32484e-01   5.70591e-01
    43     60      2   1.0000    0.0060    0.2200   3.39967e-01   4.57730e-01
    44     47      1
    44     48      2   1.0000    0.0000   -0.7620   2.85800e-01   2.40472e-01
    44     50      2   1.0000    0.0000    0.3080   3.02460e-01   1.73401e-01
    44     62      2   1.0000    0.0000   -0.4030   2.82477e-01   2.16155e-01
    45     47      1
    45     48      2   1.0000    0.0000   -0.7620   2.85800e-01   2.40472e-01
    45     50      2   1.0000    0.0000    0.3080   3.02460e-01   1.73401e-01
    45     62      2   1.0000    0.0000   -0.4030   2.82477e-01   2.16155e-01
    46     53      1
    46     54      1
    46     61      1
    46     62      2   1.0000    0.3320   -0.4030   3.19984e-01   5.70591e-01
    46     63      2   1.0000    0.3320    0.1110   3.39967e-01   4.57730e-01
    47     49      1
    47     51      1
    47     52      1
    47     60      1
    48     51      1
    48     52      2   1.0000   -0.7620   -0.6290   3.15824e-01   7.91296e-01
    48     60      2   1.0000   -0.7620    0.2200   3.23307e-01   6.34780e-01
    49     50      2   1.0000    0.4150    0.3080   1.87801e-01   2.39696e-01
    50     55      2   1.0000    0.3080   -0.0030   3.39967e-01   4.57730e-01
    50     59      1
    50     64      1
    50     65      2   1.0000    0.3080   -0.7210   3.23307e-01   6.34780e-01
    50     67      2   1.0000    0.3080    0.4920   3.39967e-01   4.57730e-01
    51     53      1
    51     54      1
    51     61      1
    51     62      1
    51     63      1
    52     56      2   1.0000   -0.6290    0.0000   2.94976e-01   2.16155e-01
    52     57      2   1.0000   -0.6290    0.0000   2.94976e-01   2.16155e-01
    52     58      2   1.0000   -0.6290    0.0000   2.94976e-01   2.16155e-01
    52     61      1
    52     62      2   1.0000   -0.6290   -0.4030   3.12501e-01   7.11280e-01
    52     63      2   1.0000   -0.6290    0.1110   3.32484e-01   5.70591e-01
    53     55      1
    53     59      1
    53     60      1
    54     60      1
    56     59      1
    57     59      1
    58     59      1
    60     66      2   1.0000    0.2200    0.4350   1.87801e-01   2.39696e-01
    60     68      1
    60     69      2   1.0000    0.2200    0.1780   3.39967e-01   4.57730e-01
    60     74      2   1.0000    0.2200   -0.5210   3.19984e-01   5.70591e-01
    61     64      1
    61     65      1
    61     67      1
    62     64      1
    62     65      2   1.0000   -0.4030   -0.7210   3.03324e-01   7.91296e-01
    62     67      2   1.0000   -0.4030    0.4920   3.19984e-01   5.70591e-01
    63     70      1
    63     71      1
    63     72      2   1.0000    0.1110   -0.6890   3.23307e-01   6.34780e-01
    63     75      2   1.0000    0.1110    0.2370   3.39967e-01   4.57730e-01
    64     66      1
    64     68      1
    64     69      1
    64     74      1
    65     68      1
    65     69      2   1.0000   -0.7210    0.1780   3.23307e-01   6.34780e-01
    65     74      2   1.0000   -0.7210   -0.5210   3.03324e-01   7.91296e-01
    66     67      2   1.0000    0.4350    0.4920   1.87801e-01   2.39696e-01
    67     73      2   1.0000    0.4920    0.4080   1.87801e-01   2.39696e-01
    67     76      1
    67     79      2   1.0000    0.4920    0.0060   3.39967e-01   4.57730e-01
    67     98      2   1.0000    0.4920   -0.4030   3.19984e-01   5.70591e-01
    68     70      1
    68     71      1
    68     72      1
    68     75      1
    69     75      2   1.0000    0.1780    0.2370   3.39967e-01   4.57730e-01
    70     73      1
    70     74      1
    71     73      1
    71     74      1
    72     74      2   1.0000   -0.6890   -0.5210   3.03324e-01   7.91296e-01
    74     77      1
    74     78      1
    74     80      2   1.0000   -0.5210    0.0000   2.82477e-01   2.16155e-01
    74     81      2   1.0000   -0.5210    0.0000   2.82477e-01   2.16155e-01
    74     82      2   1.0000   -0.5210    0.3320   3.19984e-01   5.70591e-01
    74     96      2   1.0000   -0.5210    0.2200   3.19984e-01   5.70591e-01
    75     83      1
    75     84      2   1.0000    0.2370   -0.7620   3.23307e-01   6.34780e-01
    75     86      2   1.0000    0.2370    0.3080   3.39967e-01   4.57730e-01
    75     97      1
    75     99      2   1.0000    0.2370    0.1110   3.39967e-01   4.57730e-01
    76     80      1
    76     81      1
    76     82      1
    76     96      1
    77     79      1
    77     98      1
    78     79      1
    78     98      1
    79     85      2   1.0000    0.0060    0.4150   1.87801e-01   2.39696e-01
    79     87      1
    79     88      2   1.0000    0.0060   -0.6290   3.32484e-01   5.70591e-01
    79     96      2   1.0000    0.0060    0.2200   3.39967e-01   4.57730e-01
    80     83      1
    80     84      2   1.0000    0.0000   -0.7620   2.85800e-01   2.40472e-01
    80     86      2   1.0000    0.0000    0.3080   3.02460e-01   1.73401e-01
    80     98      2   1.0000    0.0000   -0.4030   2.82477e-01   2.16155e-01
    81     83      1
    81     84      2   1.0000    0.0000   -0.7620   2.85800e-01   2.40472e-01
    81     86      2   1.0000    0.0000    0.3080   3.02460e-01   1.73401e-01
    81     98      2   1.0000    0.0000   -0.4030   2.82477e-01   2.16155e-01
    82     89      1
    82     90      1
    82     97      1
    82     98      2   1.0000    0.3320   -0.4030   3.19984e-01   5.70591e-01
    82     99      2   1.0000    0.3320    0.1110   3.39967e-01   4.57730e-01
    83     85      1
    83     87      1
    83     88      1
    83     96      1
    84     87      1
    84     88      2   1.0000   -0.7620   -0.6290   3.15824e-01   7.91296e-01
    84     96      2   1.0000   -0.7620    0.2200   3.23307e-01   6.34780e-01
    85     86      2   1.0000    0.4150    0.3080   1.87801e-01   2.39696e-01
    86     91      2   1.0000    0.3080   -0.0030   3.39967e-01   4.57730e-01
    86     95      1
    86    100      1
    86    101      2   1.0000    0.3080   -0.7210   3.23307e-01   6.34780e-01
    86    103      2   1.0000    0.3080    0.4920   3.39967e-01   4.57730e-01
    87     89      1
    87     90      1
    87     97      1
    87     98      1
    87     99      1
    88     92      2   1.0000   -0.6290    0.0000   2.94976e-01   2.16155e-01
    88     93      2   1.0000   -0.6290    0.0000   2.94976e-01   2.16155e-01
    88     94      2   1.0000   -0.6290    0.0000   2.94976e-01   2.16155e-01
    88     97      1
    88     98      2   1.0000   -0.6290   -0.4030   3.12501e-01   7.11280e-01
    88     99      2   1.0000   -0.6290    0.1110   3.32484e-01   5.70591e-01
    89     91      1
    89     95      1
    89     96      1
    90     96      1
    92     95      1
    93     95      1
    94     95      1
    96    102      2   1.0000    0.2200    0.4350   1.87801e-01   2.39696e-01
    96    104      1
    96    105      2   1.0000    0.2200    0.1780   3.39967e-01   4.57730e-01
    96    110      2   1.0000    0.2200   -0.5210   3.19984e-01   5.70591e-01
    97    100      1
    97    101      1
    97    103      1
    98    100      1
    98    101      2   1.0000   -0.4030   -0.7210   3.03324e-01   7.91296e-01
    98    103      2   1.0000   -0.4030    0.4920   3.19984e-01   5.70591e-01
    99    106      1
    99    107      1
    99    108      2   1.0000    0.1110   -0.6890   3.23307e-01   6.34780e-01
    99    111      2   1.0000    0.1110    0.2370   3.39967e-01   4.57730e-01
   100    102      1
   100    104      1
   100    105      1
   100    110      1
   101    104      1
   101    105      2   1.0000   -0.7210    0.1780   3.23307e-01   6.34780e-01
   101    110      2   1.0000   -0.7210   -0.5210   3.03324e-01   7.91296e-01
   102    103      2   1.0000    0.4350    0.4920   1.87801e-01   2.39696e-01
   103    109      2   1.0000    0.4920    0.4080   1.87801e-01   2.39696e-01
   103    112      1
   103    115      2   1.0000    0.4920    0.0060   3.39967e-01   4.57730e-01
   103    134      2   1.0000    0.4920   -0.4030   3.19984e-01   5.70591e-01
   104    106      1
   104    107      1
   104    108      1
   104    111      1
   105    111      2   1.0000    0.1780    0.2370   3.39967e-01   4.57730e-01
   106    109      1
   106    110      1
   107    109      1
   107    110      1
   108    110      2   1.0000   -0.6890   -0.5210   3.03324e-01   7.91296e-01
   110    113      1
   110    114      1
   110    116      2   1.0000   -0.5210    0.0000   2.82477e-01   2.16155e-01
   110    117      2   1.0000   -0.5210    0.0000   2.82477e-01   2.16155e-01
   110    118      2   1.0000   -0.5210    0.3320   3.19984e-01   5.70591e-01
   110    132      2   1.0000   -0.5210    0.2200   3.19984e-01   5.70591e-01
   111    119      1
   111    120      2   1.0000    0.2370   -0.7620   3.23307e-01   6.34780e-01
   111    122      2   1.0000    0.2370    0.3080   3.39967e-01   4.57730e-01
   111    133      1
   111    135      2   1.0000    0.2370    0.1110   3.39967e-01   4.57730e-01
   112    116      1
   112    117      1
   112    118      1
   112    132      1
   113    115      1
   113    134      1
   114    115      1
   114    134      1
   115    121      2   1.0000    0.0060    0.4150   1.87801e-01   2.39696e-01
   115    123      1
   115    124      2   1.0000    0.0060   -0.6290   3.32484e-01   5.70591e-01
   115    132      2   1.0000    0.0060    0.2200   3.39967e-01   4.57730e-01
   116    119      1
   116    120      2   1.0000    0.0000   -0.7620   2.85800e-01   2.40472e-01
   116    122      2   1.0000    0.0000    0.3080   3.02460e-01   1.73401e-01
   116    134      2   1.0000    0.0000   -0.4030   2.82477e-01   2.16155e-01
   117    119      1
   117    120      2   1.0000    0.0000   -0.7620   2.85800e-01   2.40472e-01
   117    122      2   1.0000    0.0000    0.3080   3.02460e-01   1.73401e-01
   117    134      2   1.0000    0.0000   -0.4030   2.82477e-01   2.16155e-01
   118    125      1
   118    126      1
   118    133      1
   118    134      2   1.0000    0.3320   -0.4030   3.19984e-01   5.70591e-01
   118    135      2   1.0000    0.3320    0.1110   3.39967e-01   4.57730e-01
   119    121      1
   119    123      1
   119    124      1
   119    132      1
   120    123      1
   120    124      2   1.0000   -0.7620   -0.6290   3.15824e-01   7.91296e-01
   120    132      2   1.0000   -0.7620    0.2200   3.23307e-01   6.34780e-01
   121    122      2   1.0000    0.4150    0.3080   1.87801e-01   2.39696e-01
   122    127      2   1.0000    0.3080   -0.0030   3.39967e-01   4.57730e-01
   122    131      1
   122    136      1
   122    137      2   1.0000    0.3080   -0.7210   3.23307e-01   6.34780e-01
   122    139      2   1.0000    0.3080    0.4920   3.39967e-01   4.57730e-01
   123    125      1
   123    126      1
   123    133      1
   123    134      1
   123    135      1
   124    128      2   1.0000   -0.6290    0.0000   2.94976e-01   2.16155e-01
   124    129      2   1.0000   -0.6290    0.0000   2.94976e-01   2.16155e-01
   124    130      2   1.0000   -0.6290    0.0000   2.94976e-01   2.16155e-01
   124    133      1
   124    134      2   1.0000   -0.6290   -0.4030   3.12501e-01   7.11280e-01
   124    135      2   1.0000   -0.6290    0.1110   3.32484e-01   5.70591e-01
   125    127      1
   125    131      1
   125    132      1
   126    132      1
   128    131      1
   129    131      1
   130    131      1
   132    138      2   1.0000    0.2200    0.4350   1.87801e-01   2.39696e-01
   132    140      1
   132    141      2   1.0000    0.2200    0.1780   3.39967e-01   4.57730e-01
   132    146      2   1.0000    0.2200   -0.5210   3.19984e-01   5.70591e-01
   133    136      1
   133    137      1
   133    139      1
   134    136      1
   134    137      2   1.0000   -0.4030   -0.7210   3.03324e-01   7.91296e-01
   134    139      2   1.0000   -0.4030    0.4920   3.19984e-01   5.70591e-01
   135    142      1
   135    143      1
   135    144      2   1.0000    0.1110   -0.6890   3.23307e-01   6.34780e-01
   135    147      2   1.0000    0.1110    0.2370   3.39967e-01   4.57730e-01
   136    138      1
   136    140      1
   136    141      1
   136    146      1
   137    140      1
   137    141      2   1.0000   -0.7210    0.1780   3.23307e-01   6.34780e-01
   137    146      2   1.0000   -0.7210   -0.5210   3.03324e-01   7.91296e-01
   138    139      2   1.0000    0.4350    0.4920   1.87801e-01   2.39696e-01
   139    145      2   1.0000    0.4920    0.4080   1.87801e-01   2.39696e-01
   139    148      1
   139    151      2   1.0000    0.4920    0.0060   3.39967e-01   4.57730e-01
   139    173      2   1.0000    0.4920   -0.4030   3.19984e-01   5.70591e-01
   140    142      1
   140    143      1
   140    144      1
   140    147      1
   141    147      2   1.0000    0.1780    0.2370   3.39967e-01   4.57730e-01
   142    145      1
   142    146      1
   143    145      1
   143    146      1
   144    146      2   1.0000   -0.6890   -0.5210   3.03324e-01   7.91296e-01
   146    149      1
   146    150      1
   146    152      2   1.0000   -0.5210    0.0000   2.82477e-01   2.16155e-01
   146    153      2   1.0000   -0.5210    0.0000   2.82477e-01   2.16155e-01
   146    154      2   1.0000   -0.5210    0.3320   3.19984e-01   5.70591e-01
   146    158      2   1.0000   -0.5210    0.2200   3.19984e-01   5.70591e-01
   147    155      1
   147    156      2   1.0000    0.2370    0.3080   3.39967e-01   4.57730e-01
   147    159      1
   147    160      2   1.0000    0.2370    0.1110   3.39967e-01   4.57730e-01
   147    182      2   1.0000    0.2370   -0.7620   3.23307e-01   6.34780e-01
   148    152      1
   148    153      1
   148    154      1
   148    158      1
   149    151      1
   149    173      1
   150    151      1
   150    173      1
   151    157      1
   151    158      2   1.0000    0.0060    0.2200   3.39967e-01   4.57730e-01
   151    174      2   1.0000    0.0060   -0.6290   3.32484e-01   5.70591e-01
   151    183      2   1.0000    0.0060    0.4150   1.87801e-01   2.39696e-01
   152    155      1
   152    156      2   1.0000    0.0000    0.3080   3.02460e-01   1.73401e-01
   152    173      2   1.0000    0.0000   -0.4030   2.82477e-01   2.16155e-01
   152    182      2   1.0000    0.0000   -0.7620   2.85800e-01   2.40472e-01
   153    155      1
   153    156      2   1.0000    0.0000    0.3080   3.02460e-01   1.73401e-01
   153    173      2   1.0000    0.0000   -0.4030   2.82477e-01   2.16155e-01
   153    182      2   1.0000    0.0000   -0.7620   2.85800e-01   2.40472e-01
   154    159      1
   154    160      2   1.0000    0.3320    0.1110   3.39967e-01   4.57730e-01
   154    173      2   1.0000    0.3320   -0.4030   3.19984e-01   5.70591e-01
   154    175      1
   154    176      1
   155    157      1
   155    158      1
   155    174      1
   155    183      1
   156    161      1
   156    162      2   1.0000    0.3080    0.4920   3.39967e-01   4.57730e-01
   156    171      2   1.0000    0.3080   -0.7210   3.23307e-01   6.34780e-01
   156    177      2   1.0000    0.3080   -0.0030   3.39967e-01   4.57730e-01
   156    181      1
   156    183      2   1.0000    0.3080    0.4150   1.87801e-01   2.39696e-01
   157    159      1
   157    160      1
   157    173      1
   157    175      1
   157    176      1
   157    182      1
   158    163      1
   158    164      2   1.0000    0.2200    0.1780   3.39967e-01   4.57730e-01
   158    169      2   1.0000    0.2200   -0.7390   3.23307e-01   6.34780e-01
   158    172      2   1.0000    0.2200    0.4350   1.87801e-01   2.39696e-01
   158    175      1
   158    176      1
   158    182      2   1.0000    0.2200   -0.7620   3.23307e-01   6.34780e-01
   159    161      1
   159    162      1
   159    171      1
   159    174      1
   160    165      1
   160    166      1
   160    167      2   1.0000    0.1110   -0.6890   3.23307e-01   6.34780e-01
   160    170      2   1.0000    0.1110    0.4120   1.87801e-01   2.39696e-01
   160    174      2   1.0000    0.1110   -0.6290   3.32484e-01   5.70591e-01
   161    163      1
   161    164      1
   161    169      1
   161    172      1
   161    173      1
   162    168      2   1.0000    0.4920    0.4080   1.87801e-01   2.39696e-01
   162    172      2   1.0000    0.4920    0.4350   1.87801e-01   2.39696e-01
   162    173      2   1.0000    0.4920   -0.4030   3.19984e-01   5.70591e-01
   163    165      1
   163    166      1
   163    167      1
   163    170      1
   163    171      1
   164    170      2   1.0000    0.1780    0.4120   1.87801e-01   2.39696e-01
   164    171      2   1.0000    0.1780   -0.7210   3.23307e-01   6.34780e-01
   165    168      1
   165    169      1
   166    168      1
   166    169      1
   167    169      2   1.0000   -0.6890   -0.7390   3.06647e-01   8.80314e-01
   169    171      2   1.0000   -0.7390   -0.7210   3.06647e-01   8.80314e-01
   171    173      2   1.0000   -0.7210   -0.4030   3.03324e-01   7.91296e-01
   173    174      2   1.0000   -0.4030   -0.6290   3.12501e-01   7.11280e-01
   174    178      2   1.0000   -0.6290    0.0000   2.94976e-01   2.16155e-01
   174    179      2   1.0000   -0.6290    0.0000   2.94976e-01   2.16155e-01
   174    180      2   1.0000   -0.6290    0.0000   2.94976e-01   2.16155e-01
   174    182      2   1.0000   -0.6290   -0.7620   3.15824e-01   7.91296e-01
   175    177      1
   175    181      1
   178    181      1
   179    181      1
   180    181      1

[ angles ]
;    ai    aj     ak   funct   c0   c1
     1      2      3      1
     2      3      4      1
     2      3      7      1
     2      3     26      1
     4      3      7      1
     4      3     26      1
     7      3     26      1
     3      4      5      1
     3      4      6      1
     5      4      6      1
     3      7      8      1
     3      7      9      1
     3      7     10      1
     8      7      9      1
     8      7     10      1
     9      7     10      1
     7     10     11      1
     7     10     12      1
     7     10     14      1
    11     10     12      1
    11     10     14      1
    12     10     14      1
    10     12     13      1
    10     14     15      1
    10     14     16      1
    10     14     24      1
    15     14     16      1
    15     14     24      1
    16     14     24      1
    14     16     17      1
    14     16     18      1
    17     16     18      1
    16     18     19      1
    16     18     23      1
    19     18     23      1
    18     19     20      1
    18     19     21      1
    18     19     22      1
    20     19     21      1
    20     19     22      1
    21     19     22      1
    14     24     25      1
    14     24     26      1
    14     24     27      1
    25     24     26      1
    25     24     27      1
    26     24     27      1
     3     26     24      1
    24     27     28      1
    24     27     29      1
    24     27     31      1
    28     27     29      1
    28     27     31      1
    29     27     31      1
    27     29     30      1
    27     31     32      1
    27     31     33      1
    27     31     38      1
    32     31     33      1
    32     31     38      1
    33     31     38      1
    31     33     34      1
    31     33     35      1
    31     33     36      1
    34     33     35      1
    34     33     36      1
    35     33     36      1
    33     36     37      1
    31     38     39      1
    38     39     40      1
    38     39     43      1
    38     39     62      1
    40     39     43      1
    40     39     62      1
    43     39     62      1
    39     40     41      1
    39     40     42      1
    41     40     42      1
    39     43     44      1
    39     43     45      1
    39     43     46      1
    44     43     45      1
    44     43     46      1
    45     43     46      1
    43     46     47      1
    43     46     48      1
    43     46     50      1
    47     46     48      1
    47     46     50      1
    48     46     50      1
    46     48     49      1
    46     50     51      1
    46     50     52      1
    46     50     60      1
    51     50     52      1
    51     50     60      1
    52     50     60      1
    50     52     53      1
    50     52     54      1
    53     52     54      1
    52     54     55      1
    52     54     59      1
    55     54     59      1
    54     55     56      1
    54     55     57      1
    54     55     58      1
    56     55     57      1
    56     55     58      1
    57     55     58      1
    50     60     61      1
    50     60     62      1
    50     60     63      1
    61     60     62      1
    61     60     63      1
    62     60     63      1
    39     62     60      1
    60     63     64      1
    60     63     65      1
    60     63     67      1
    64     63     65      1
    64     63     67      1
    65     63     67      1
    63     65     66      1
    63     67     68      1
    63     67     69      1
    63     67     74      1
    68     67     69      1
    68     67     74      1
    69     67     74      1
    67     69     70      1
    67     69     71      1
    67     69     72      1
    70     69     71      1
    70     69     72      1
    71     69     72      1
    69     72     73      1
    67     74     75      1
    74     75     76      1
    74     75     79      1
    74     75     98      1
    76     75     79      1
    76     75     98      1
    79     75     98      1
    75     76     77      1
    75     76     78      1
    77     76     78      1
    75     79     80      1
    75     79     81      1
    75     79     82      1
    80     79     81      1
    80     79     82      1
    81     79     82      1
    79     82     83      1
    79     82     84      1
    79     82     86      1
    83     82     84      1
    83     82     86      1
    84     82     86      1
    82     84     85      1
    82     86     87      1
    82     86     88      1
    82     86     96      1
    87     86     88      1
    87     86     96      1
    88     86     96      1
    86     88     89      1
    86     88     90      1
    89     88     90      1
    88     90     91      1
    88     90     95      1
    91     90     95      1
    90     91     92      1
    90     91     93      1
    90     91     94      1
    92     91     93      1
    92     91     94      1
    93     91     94      1
    86     96     97      1
    86     96     98      1
    86     96     99      1
    97     96     98      1
    97     96     99      1
    98     96     99      1
    75     98     96      1
    96     99    100      1
    96     99    101      1
    96     99    103      1
   100     99    101      1
   100     99    103      1
   101     99    103      1
    99    101    102      1
    99    103    104      1
    99    103    105      1
    99    103    110      1
   104    103    105      1
   104    103    110      1
   105    103    110      1
   103    105    106      1
   103    105    107      1
   103    105    108      1
   106    105    107      1
   106    105    108      1
   107    105    108      1
   105    108    109      1
   103    110    111      1
   110    111    112      1
   110    111    115      1
   110    111    134      1
   112    111    115      1
   112    111    134      1
   115    111    134      1
   111    112    113      1
   111    112    114      1
   113    112    114      1
   111    115    116      1
   111    115    117      1
   111    115    118      1
   116    115    117      1
   116    115    118      1
   117    115    118      1
   115    118    119      1
   115    118    120      1
   115    118    122      1
   119    118    120      1
   119    118    122      1
   120    118    122      1
   118    120    121      1
   118    122    123      1
   118    122    124      1
   118    122    132      1
   123    122    124      1
   123    122    132      1
   124    122    132      1
   122    124    125      1
   122    124    126      1
   125    124    126      1
   124    126    127      1
   124    126    131      1
   127    126    131      1
   126    127    128      1
   126    127    129      1
   126    127    130      1
   128    127    129      1
   128    127    130      1
   129    127    130      1
   122    132    133      1
   122    132    134      1
   122    132    135      1
   133    132    134      1
   133    132    135      1
   134    132    135      1
   111    134    132      1
   132    135    136      1
   132    135    137      1
   132    135    139      1
   136    135    137      1
   136    135    139      1
   137    135    139      1
   135    137    138      1
   135    139    140      1
   135    139    141      1
   135    139    146      1
   140    139    141      1
   140    139    146      1
   141    139    146      1
   139    141    142      1
   139    141    143      1
   139    141    144      1
   142    141    143      1
   142    141    144      1
   143    141    144      1
   141    144    145      1
   139    146    147      1
   146    147    148      1
   146    147    151      1
   146    147    173      1
   148    147    151      1
   148    147    173      1
   151    147    173      1
   147    148    149      1
   147    148    150      1
   149    148    150      1
   147    151    152      1
   147    151    153      1
   147    151    154      1
   152    151    153      1
   152    151    154      1
   153    151    154      1
   151    154    155      1
   151    154    156      1
   151    154    182      1
   155    154    156      1
   155    154    182      1
   156    154    182      1
   154    156    157      1
   154    156    158      1
   154    156    174      1
   157    156    158      1
   157    156    174      1
   158    156    174      1
   156    158    159      1
   156    158    160      1
   156    158    173      1
   159    158    160      1
   159    158    173      1
   160    158    173      1
   158    160    161      1
   158    160    162      1
   158    160    171      1
   161    160    162      1
   161    160    171      1
   162    160    171      1
   160    162    163      1
   160    162    164      1
   160    162    169      1
   163    162    164      1
   163    162    169      1
   164    162    169      1
   162    164    165      1
   162    164    166      1
   162    164    167      1
   165    164    166      1
   165    164    167      1
   166    164    167      1
   164    167    168      1
   162    169    170      1
   160    171    172      1
   147    173    158      1
   156    174    175      1
   156    174    176      1
   175    174    176      1
   174    176    177      1
   174    176    181      1
   177    176    181      1
   176    177    178      1
   176    177    179      1
   176    177    180      1
   178    177    179      1
   178    177    180      1
   179    177    180      1
   154    182    183      1

[ dihedrals ]
;   ai     aj     ak     al  funct
     1      2      3      4      9
     1      2      3      7      9
     1      2      3     26      9
     2      3      4      5      9
     2      3      4      6      9
     7      3      4      5      9
     7      3      4      6      9
    26      3      4      5      9
    26      3      4      6      9
     2      3      7      8      9
     2      3      7      9      9
     2      3      7     10      9
     4      3      7      8      9
     4      3      7      9      9
     4      3      7     10      9
    26      3      7      8      9
    26      3      7      9      9
    26      3      7     10      9
     2      3     26     24      9
     4      3     26     24      9
     7      3     26     24      9
     3      7     10     11      9
     3      7     10     12      9
     3      7     10     14      9
     8      7     10     11      9
     8      7     10     12      9
     8      7     10     14      9
     9      7     10     11      9
     9      7     10     12      9
     9      7     10     14      9
     7     10     12     13      9
    11     10     12     13      9
    14     10     12     13      9
     7     10     14     15      9
     7     10     14     16      9
     7     10     14     24      9
    11     10     14     15      9
    11     10     14     16      9
    11     10     14     24      9
    12     10     14     15      9
    12     10     14     16      9
    12     10     14     24      9
    10     14     16     17      9
    10     14     16     18      9
    15     14     16     17      9
    15     14     16     18      9
    24     14     16     17      9
    24     14     16     18      9
    10     14     24     25      9
    10     14     24     26      9
    10     14     24     27      9
    15     14     24     25      9
    15     14     24     26      9
    15     14     24     27      9
    16     14     24     25      9
    16     14     24     26      9
    16     14     24     27      9
    14     16     18     19      9
    14     16     18     23      9
    17     16     18     19      9
    17     16     18     23      9
    16     18     19     20      9
    16     18     19     21      9
    16     18     19     22      9
    23     18     19     20      9
    23     18     19     21      9
    23     18     19     22      9
    14     24     26      3      9
    25     24     26      3      9
    27     24     26      3      9
    14     24     27     28      9
    14     24     27     29      9
    14     24     27     31      9
    25     24     27     28      9
    25     24     27     29      9
    25     24     27     31      9
    26     24     27     28      9
    26     24     27     29      9
    26     24     27     31      9
    24     27     29     30      9
    28     27     29     30      9
    31     27     29     30      9
    24     27     31     32      9
    24     27     31     33      9
    24     27     31     38      9
    28     27     31     32      9
    28     27     31     33      9
    28     27     31     38      9
    29     27     31     32      9
    29     27     31     33      9
    29     27     31     38      9
    27     31     33     34      9
    27     31     33     35      9
    27     31     33     36      9
    32     31     33     34      9
    32     31     33     35      9
    32     31     33     36      9
    38     31     33     34      9
    38     31     33     35      9
    38     31     33     36      9
    27     31     38     39      9
    32     31     38     39      9
    33     31     38     39      9
    31     33     36     37      9
    34     33     36     37      9
    35     33     36     37      9
    31     38     39     40      9
    31     38     39     43      9
    31     38     39     62      9
    38     39     40     41      9
    38     39     40     42      9
    43     39     40     41      9
    43     39     40     42      9
    62     39     40     41      9
    62     39     40     42      9
    38     39     43     44      9
    38     39     43     45      9
    38     39     43     46      9
    40     39     43     44      9
    40     39     43     45      9
    40     39     43     46      9
    62     39     43     44      9
    62     39     43     45      9
    62     39     43     46      9
    38     39     62     60      9
    40     39     62     60      9
    43     39     62     60      9
    39     43     46     47      9
    39     43     46     48      9
    39     43     46     50      9
    44     43     46     47      9
    44     43     46     48      9
    44     43     46     50      9
    45     43     46     47      9
    45     43     46     48      9
    45     43     46     50      9
    43     46     48     49      9
    47     46     48     49      9
    50     46     48     49      9
    43     46     50     51      9
    43     46     50     52      9
    43     46     50     60      9
    47     46     50     51      9
    47     46     50     52      9
    47     46     50     60      9
    48     46     50     51      9
    48     46     50     52      9
    48     46     50     60      9
    46     50     52     53      9
    46     50     52     54      9
    51     50     52     53      9
    51     50     52     54      9
    60     50     52     53      9
    60     50     52     54      9
    46     50     60     61      9
    46     50     60     62      9
    46     50     60     63      9
    51     50     60     61      9
    51     50     60     62      9
    51     50     60     63      9
    52     50     60     61      9
    52     50     60     62      9
    52     50     60     63      9
    50     52     54     55      9
    50     52     54     59      9
    53     52     54     55      9
    53     52     54     59      9
    52     54     55     56      9
    52     54     55     57      9
    52     54     55     58      9
    59     54     55     56      9
    59     54     55     57      9
    59     54     55     58      9
    50     60     62     39      9
    61     60     62     39      9
    63     60     62     39      9
    50     60     63     64      9
    50     60     63     65      9
    50     60     63     67      9
    61     60     63     64      9
    61     60     63     65      9
    61     60     63     67      9
    62     60     63     64      9
    62     60     63     65      9
    62     60     63     67      9
    60     63     65     66      9
    64     63     65     66      9
    67     63     65     66      9
    60     63     67     68      9
    60     63     67     69      9
    60     63     67     74      9
    64     63     67     68      9
    64     63     67     69      9
    64     63     67     74      9
    65     63     67     68      9
    65     63     67     69      9
    65     63     67     74      9
    63     67     69     70      9
    63     67     69     71      9
    63     67     69     72      9
    68     67     69     70      9
    68     67     69     71      9
    68     67     69     72      9
    74     67     69     70      9
    74     67     69     71      9
    74     67     69     72      9
    63     67     74     75      9
    68     67     74     75      9
    69     67     74     75      9
    67     69     72     73      9
    70     69     72     73      9
    71     69     72     73      9
    67     74     75     76      9
    67     74     75     79      9
    67     74     75     98      9
    74     75     76     77      9
    74     75     76     78      9
    79     75     76     77      9
    79     75     76     78      9
    98     75     76     77      9
    98     75     76     78      9
    74     75     79     80      9
    74     75     79     81      9
    74     75     79     82      9
    76     75     79     80      9
    76     75     79     81      9
    76     75     79     82      9
    98     75     79     80      9
    98     75     79     81      9
    98     75     79     82      9
    74     75     98     96      9
    76     75     98     96      9
    79     75     98     96      9
    75     79     82     83      9
    75     79     82     84      9
    75     79     82     86      9
    80     79     82     83      9
    80     79     82     84      9
    80     79     82     86      9
    81     79     82     83      9
    81     79     82     84      9
    81     79     82     86      9
    79     82     84     85      9
    83     82     84     85      9
    86     82     84     85      9
    79     82     86     87      9
    79     82     86     88      9
    79     82     86     96      9
    83     82     86     87      9
    83     82     86     88      9
    83     82     86     96      9
    84     82     86     87      9
    84     82     86     88      9
    84     82     86     96      9
    82     86     88     89      9
    82     86     88     90      9
    87     86     88     89      9
    87     86     88     90      9
    96     86     88     89      9
    96     86     88     90      9
    82     86     96     97      9
    82     86     96     98      9
    82     86     96     99      9
    87     86     96     97      9
    87     86     96     98      9
    87     86     96     99      9
    88     86     96     97      9
    88     86     96     98      9
    88     86     96     99      9
    86     88     90     91      9
    86     88     90     95      9
    89     88     90     91      9
    89     88     90     95      9
    88     90     91     92      9
    88     90     91     93      9
    88     90     91     94      9
    95     90     91     92      9
    95     90     91     93      9
    95     90     91     94      9
    86     96     98     75      9
    97     96     98     75      9
    99     96     98     75      9
    86     96     99    100      9
    86     96     99    101      9
    86     96     99    103      9
    97     96     99    100      9
    97     96     99    101      9
    97     96     99    103      9
    98     96     99    100      9
    98     96     99    101      9
    98     96     99    103      9
    96     99    101    102      9
   100     99    101    102      9
   103     99    101    102      9
    96     99    103    104      9
    96     99    103    105      9
    96     99    103    110      9
   100     99    103    104      9
   100     99    103    105      9
   100     99    103    110      9
   101     99    103    104      9
   101     99    103    105      9
   101     99    103    110      9
    99    103    105    106      9
    99    103    105    107      9
    99    103    105    108      9
   104    103    105    106      9
   104    103    105    107      9
   104    103    105    108      9
   110    103    105    106      9
   110    103    105    107      9
   110    103    105    108      9
    99    103    110    111      9
   104    103    110    111      9
   105    103    110    111      9
   103    105    108    109      9
   106    105    108    109      9
   107    105    108    109      9
   103    110    111    112      9
   103    110    111    115      9
   103    110    111    134      9
   110    111    112    113      9
   110    111    112    114      9
   115    111    112    113      9
   115    111    112    114      9
   134    111    112    113      9
   134    111    112    114      9
   110    111    115    116      9
   110    111    115    117      9
   110    111    115    118      9
   112    111    115    116      9
   112    111    115    117      9
   112    111    115    118      9
   134    111    115    116      9
   134    111    115    117      9
   134    111    115    118      9
   110    111    134    132      9
   112    111    134    132      9
   115    111    134    132      9
   111    115    118    119      9
   111    115    118    120      9
   111    115    118    122      9
   116    115    118    119      9
   116    115    118    120      9
   116    115    118    122      9
   117    115    118    119      9
   117    115    118    120      9
   117    115    118    122      9
   115    118    120    121      9
   119    118    120    121      9
   122    118    120    121      9
   115    118    122    123      9
   115    118    122    124      9
   115    118    122    132      9
   119    118    122    123      9
   119    118    122    124      9
   119    118    122    132      9
   120    118    122    123      9
   120    118    122    124      9
   120    118    122    132      9
   118    122    124    125      9
   118    122    124    126      9
   123    122    124    125      9
   123    122    124    126      9
   132    122    124    125      9
   132    122    124    126      9
   118    122    132    133      9
   118    122    132    134      9
   118    122    132    135      9
   123    122    132    133      9
   123    122    132    134      9
   123    122    132    135      9
   124    122    132    133      9
   124    122    132    134      9
   124    122    132    135      9
   122    124    126    127      9
   122    124    126    131      9
   125    124    126    127      9
   125    124    126    131      9
   124    126    127    128      9
   124    126    127    129      9
   124    126    127    130      9
   131    126    127    128      9
   131    126    127    129      9
   131    126    127    130      9
   122    132    134    111      9
   133    132    134    111      9
   135    132    134    111      9
   122    132    135    136      9
   122    132    135    137      9
   122    132    135    139      9
   133    132    135    136      9
   133    132    135    137      9
   133    132    135    139      9
   134    132    135    136      9
   134    132    135    137      9
   134    132    135    139      9
   132    135    137    138      9
   136    135    137    138      9
   139    135    137    138      9
   132    135    139    140      9
   132    135    139    141      9
   132    135    139    146      9
   136    135    139    140      9
   136    135    139    141      9
   136    135    139    146      9
   137    135    139    140      9
   137    135    139    141      9
   137    135    139    146      9
   135    139    141    142      9
   135    139    141    143      9
   135    139    141    144      9
   140    139    141    142      9
   140    139    141    143      9
   140    139    141    144      9
   146    139    141    142      9
   146    139    141    143      9
   146    139    141    144      9
   135    139    146    147      9
   140    139    146    147      9
   141    139    146    147      9
   139    141    144    145      9
   142    141    144    145      9
   143    141    144    145      9
   139    146    147    148      9
   139    146    147    151      9
   139    146    147    173      9
   146    147    148    149      9
   146    147    148    150      9
   151    147    148    149      9
   151    147    148    150      9
   173    147    148    149      9
   173    147    148    150      9
   146    147    151    152      9
   146    147    151    153      9
   146    147    151    154      9
   148    147    151    152      9
   148    147    151    153      9
   148    147    151    154      9
   173    147    151    152      9
   173    147    151    153      9
   173    147    151    154      9
   146    147    173    158      9
   148    147    173    158      9
   151    147    173    158      9
   147    151    154    155      9
   147    151    154    156      9
   147    151    154    182      9
   152    151    154    155      9
   152    151    154    156      9
   152    151    154    182      9
   153    151    154    155      9
   153    151    154    156      9
   153    151    154    182      9
   151    154    156    157      9
   151    154    156    158      9
   151    154    156    174      9
   155    154    156    157      9
   155    154    156    158      9
   155    154    156    174      9
   182    154    156    157      9
   182    154    156    158      9
   182    154    156    174      9
   151    154    182    183      9
   155    154    182    183      9
   156    154    182    183      9
   154    156    158    159      9
   154    156    158    160      9
   154    156    158    173      9
   157    156    158    159      9
   157    156    158    160      9
   157    156    158    173      9
   174    156    158    159      9
   174    156    158    160      9
   174    156    158    173      9
   154    156    174    175      9
   154    156    174    176      9
   157    156    174    175      9
   157    156    174    176      9
   158    156    174    175      9
   158    156    174    176      9
   156    158    160    161      9
   156    158    160    162      9
   156    158    160    171      9
   159    158    160    161      9
   159    158    160    162      9
   159    158    160    171      9
   173    158    160    161      9
   173    158    160    162      9
   173    158    160    171      9
   156    158    173    147      9
   159    158    173    147      9
   160    158    173    147      9
   158    160    162    163      9
   158    160    162    164      9
   158    160    162    169      9
   161    160    162    163      9
   161    160    162    164      9
   161    160    162    169      9
   171    160    162    163      9
   171    160    162    164      9
   171    160    162    169      9
   158    160    171    172      9
   161    160    171    172      9
   162    160    171    172      9
   160    162    164    165      9
   160    162    164    166      9
   160    162    164    167      9
   163    162    164    165      9
   163    162    164    166      9
   163    162    164    167      9
   169    162    164    165      9
   169    162    164    166      9
   169    162    164    167      9
   160    162    169    170      9
   163    162    169    170      9
   164    162    169    170      9
   162    164    167    168      9
   165    164    167    168      9
   166    164    167    168      9
   156    174    176    177      9
   156    174    176    181      9
   175    174    176    177      9
   175    174    176    181      9
   174    176    177    178      9
   174    176    177    179      9
   174    176    177    180      9
   181    176    177    178      9
   181    176    177    179      9
   181    176    177    180      9

[ dihedrals ]
;   ai     aj     ak     al  funct
     3      5      4      6      4
    18     17     16     14      4
    19     16     18     23      4
    39     41     40     42      4
    54     53     52     50      4
    55     52     54     59      4
    75     77     76     78      4
    90     89     88     86      4
    91     88     90     95      4
   111    113    112    114      4
   126    125    124    122      4
   127    124    126    131      4
   147    149    148    150      4
   176    175    174    156      4
   177    174    176    181      4

