; VARIOUS PREPROCESSING OPTIONS  
title                    = Energy Minim. for Amberff



; RUN CONTROL PARAMETERS FOR EMIN 
integrator  = steep         ; Algorithm (steep = steepest descent minimization)
emtol       = 100.0        ; Stop minimization when the maximum force < 1000.0 kJ/mol/nm
emstep      = 0.01          ; Minimization step size
nsteps      = 50000         ; Maximum number of (minimization) steps to perform


; NEIGHBORS SEARCH PARAMETERS

nstlist         = 10         ; Frequency to update the neighbor list and long range forces
cutoff-scheme   = Verlet    ; Buffered neighbor searching
ns_type         = grid      ; Method to determine neighbor list (simple, grid)
coulombtype     = PME       ; Treatment of long range electrostatic interactions
rcoulomb        = 1.2       ; Short-range electrostatic cut-off
rvdw            = 1.2       ; Short-range Van der Waals cut-off
pbc             = xyz       ; Periodic Boundary Conditions in all 3 dimensions
vdwtype         = Cut-off
vdw-modifier    = Force-switch
rvdw_switch     = 1.0
