[ moleculetype ]
; Name    nrexcl
polySia 3

[ atoms ]
;   nr       type      resnr   residue      atom  cgnr    charge     mass
; Residue 1 ROH q=-0.194
; ROH for aglycon
     1         Ho      1    ROH    HO1      1     0.4450      1.008
     2         Oh      1    ROH     O1      2    -0.6390     15.999
; Residue 2 8SA q=-1.000
; 
     3         Cy      2    8SA     C2      3     0.2370     12.011
     4          C      2    8SA     C1      4     0.7890     12.011
     5         O2      2    8SA    O1A      5    -0.7610     15.999
     6         O2      2    8SA    O1B      6    -0.7610     15.999
     7         Cg      2    8SA     C3      7     0.0060     12.011
     8         Hc      2    8SA    H3E      8     0.0000      1.008
     9         Hc      2    8SA    H3A      9     0.0000      1.008
    10         Cg      2    8SA     C4     10     0.3320     12.011
    11         H1      2    8SA     H4     11     0.0000      1.008
    12         Oh      2    8SA     O4     12    -0.7620     15.999
    13         Ho      2    8SA    H4O     13     0.4150      1.008
    14         Cg      2    8SA     C5     14     0.3080     12.011
    15         H1      2    8SA     H5     15     0.0000      1.008
    16         Ng      2    8SA     N5     16    -0.6290     14.007
    17          H      2    8SA    H5N     17     0.2800      1.008
    18          C      2    8SA    C5N     18     0.6320     12.011
    19         Cg      2    8SA    CME     19    -0.0030     12.011
    20         Hc      2    8SA    H3M     20     0.0000      1.008
    21         Hc      2    8SA    H2M     21     0.0000      1.008
    22         Hc      2    8SA    H1M     22     0.0000      1.008
    23          O      2    8SA    O5N     23    -0.5930     15.999
    24         Cg      2    8SA     C6     24     0.2200     12.011
    25         H1      2    8SA     H6     25     0.0000      1.008
    26         Oy      2    8SA     O6     26    -0.4030     15.999
    27         Cg      2    8SA     C7     27     0.1110     12.011
    28         H1      2    8SA     H7     28     0.0000      1.008
    29         Oh      2    8SA     O7     29    -0.7210     15.999
    30         Ho      2    8SA    H7O     30     0.4350      1.008
    31         Cg      2    8SA     C8     31     0.4920     12.011
    32         H1      2    8SA     H8     32     0.0000      1.008
    33         Cg      2    8SA     C9     33     0.1780     12.011
    34         H1      2    8SA    H9S     34     0.0000      1.008
    35         H1      2    8SA    H9R     35     0.0000      1.008
    36         Oh      2    8SA     O9     36    -0.6890     15.999
    37         Ho      2    8SA    H9O     37     0.4080      1.008
    38         Os      2    8SA     O8     38    -0.5210     15.999
; Residue 3 8SA q=-1.000
; 
    39         Cy      3    8SA     C2     39     0.2370     12.011
    40          C      3    8SA     C1     40     0.7890     12.011
    41         O2      3    8SA    O1A     41    -0.7610     15.999
    42         O2      3    8SA    O1B     42    -0.7610     15.999
    43         Cg      3    8SA     C3     43     0.0060     12.011
    44         Hc      3    8SA    H3E     44     0.0000      1.008
    45         Hc      3    8SA    H3A     45     0.0000      1.008
    46         Cg      3    8SA     C4     46     0.3320     12.011
    47         H1      3    8SA     H4     47     0.0000      1.008
    48         Oh      3    8SA     O4     48    -0.7620     15.999
    49         Ho      3    8SA    H4O     49     0.4150      1.008
    50         Cg      3    8SA     C5     50     0.3080     12.011
    51         H1      3    8SA     H5     51     0.0000      1.008
    52         Ng      3    8SA     N5     52    -0.6290     14.007
    53          H      3    8SA    H5N     53     0.2800      1.008
    54          C      3    8SA    C5N     54     0.6320     12.011
    55         Cg      3    8SA    CME     55    -0.0030     12.011
    56         Hc      3    8SA    H3M     56     0.0000      1.008
    57         Hc      3    8SA    H2M     57     0.0000      1.008
    58         Hc      3    8SA    H1M     58     0.0000      1.008
    59          O      3    8SA    O5N     59    -0.5930     15.999
    60         Cg      3    8SA     C6     60     0.2200     12.011
    61         H1      3    8SA     H6     61     0.0000      1.008
    62         Oy      3    8SA     O6     62    -0.4030     15.999
    63         Cg      3    8SA     C7     63     0.1110     12.011
    64         H1      3    8SA     H7     64     0.0000      1.008
    65         Oh      3    8SA     O7     65    -0.7210     15.999
    66         Ho      3    8SA    H7O     66     0.4350      1.008
    67         Cg      3    8SA     C8     67     0.4920     12.011
    68         H1      3    8SA     H8     68     0.0000      1.008
    69         Cg      3    8SA     C9     69     0.1780     12.011
    70         H1      3    8SA    H9S     70     0.0000      1.008
    71         H1      3    8SA    H9R     71     0.0000      1.008
    72         Oh      3    8SA     O9     72    -0.6890     15.999
    73         Ho      3    8SA    H9O     73     0.4080      1.008
    74         Os      3    8SA     O8     74    -0.5210     15.999
; Residue 4 8SA q=-1.000
; 
    75         Cy      4    8SA     C2     75     0.2370     12.011
    76          C      4    8SA     C1     76     0.7890     12.011
    77         O2      4    8SA    O1A     77    -0.7610     15.999
    78         O2      4    8SA    O1B     78    -0.7610     15.999
    79         Cg      4    8SA     C3     79     0.0060     12.011
    80         Hc      4    8SA    H3E     80     0.0000      1.008
    81         Hc      4    8SA    H3A     81     0.0000      1.008
    82         Cg      4    8SA     C4     82     0.3320     12.011
    83         H1      4    8SA     H4     83     0.0000      1.008
    84         Oh      4    8SA     O4     84    -0.7620     15.999
    85         Ho      4    8SA    H4O     85     0.4150      1.008
    86         Cg      4    8SA     C5     86     0.3080     12.011
    87         H1      4    8SA     H5     87     0.0000      1.008
    88         Ng      4    8SA     N5     88    -0.6290     14.007
    89          H      4    8SA    H5N     89     0.2800      1.008
    90          C      4    8SA    C5N     90     0.6320     12.011
    91         Cg      4    8SA    CME     91    -0.0030     12.011
    92         Hc      4    8SA    H3M     92     0.0000      1.008
    93         Hc      4    8SA    H2M     93     0.0000      1.008
    94         Hc      4    8SA    H1M     94     0.0000      1.008
    95          O      4    8SA    O5N     95    -0.5930     15.999
    96         Cg      4    8SA     C6     96     0.2200     12.011
    97         H1      4    8SA     H6     97     0.0000      1.008
    98         Oy      4    8SA     O6     98    -0.4030     15.999
    99         Cg      4    8SA     C7     99     0.1110     12.011
   100         H1      4    8SA     H7    100     0.0000      1.008
   101         Oh      4    8SA     O7    101    -0.7210     15.999
   102         Ho      4    8SA    H7O    102     0.4350      1.008
   103         Cg      4    8SA     C8    103     0.4920     12.011
   104         H1      4    8SA     H8    104     0.0000      1.008
   105         Cg      4    8SA     C9    105     0.1780     12.011
   106         H1      4    8SA    H9S    106     0.0000      1.008
   107         H1      4    8SA    H9R    107     0.0000      1.008
   108         Oh      4    8SA     O9    108    -0.6890     15.999
   109         Ho      4    8SA    H9O    109     0.4080      1.008
   110         Os      4    8SA     O8    110    -0.5210     15.999
; Residue 5 8SA q=-1.000
; 
   111         Cy      5    8SA     C2    111     0.2370     12.011
   112          C      5    8SA     C1    112     0.7890     12.011
   113         O2      5    8SA    O1A    113    -0.7610     15.999
   114         O2      5    8SA    O1B    114    -0.7610     15.999
   115         Cg      5    8SA     C3    115     0.0060     12.011
   116         Hc      5    8SA    H3E    116     0.0000      1.008
   117         Hc      5    8SA    H3A    117     0.0000      1.008
   118         Cg      5    8SA     C4    118     0.3320     12.011
   119         H1      5    8SA     H4    119     0.0000      1.008
   120         Oh      5    8SA     O4    120    -0.7620     15.999
   121         Ho      5    8SA    H4O    121     0.4150      1.008
   122         Cg      5    8SA     C5    122     0.3080     12.011
   123         H1      5    8SA     H5    123     0.0000      1.008
   124         Ng      5    8SA     N5    124    -0.6290     14.007
   125          H      5    8SA    H5N    125     0.2800      1.008
   126          C      5    8SA    C5N    126     0.6320     12.011
   127         Cg      5    8SA    CME    127    -0.0030     12.011
   128         Hc      5    8SA    H3M    128     0.0000      1.008
   129         Hc      5    8SA    H2M    129     0.0000      1.008
   130         Hc      5    8SA    H1M    130     0.0000      1.008
   131          O      5    8SA    O5N    131    -0.5930     15.999
   132         Cg      5    8SA     C6    132     0.2200     12.011
   133         H1      5    8SA     H6    133     0.0000      1.008
   134         Oy      5    8SA     O6    134    -0.4030     15.999
   135         Cg      5    8SA     C7    135     0.1110     12.011
   136         H1      5    8SA     H7    136     0.0000      1.008
   137         Oh      5    8SA     O7    137    -0.7210     15.999
   138         Ho      5    8SA    H7O    138     0.4350      1.008
   139         Cg      5    8SA     C8    139     0.4920     12.011
   140         H1      5    8SA     H8    140     0.0000      1.008
   141         Cg      5    8SA     C9    141     0.1780     12.011
   142         H1      5    8SA    H9S    142     0.0000      1.008
   143         H1      5    8SA    H9R    143     0.0000      1.008
   144         Oh      5    8SA     O9    144    -0.6890     15.999
   145         Ho      5    8SA    H9O    145     0.4080      1.008
   146         Os      5    8SA     O8    146    -0.5210     15.999
; Residue 6 8SA q=-1.000
; 
   147         Cy      6    8SA     C2    147     0.2370     12.011
   148          C      6    8SA     C1    148     0.7890     12.011
   149         O2      6    8SA    O1A    149    -0.7610     15.999
   150         O2      6    8SA    O1B    150    -0.7610     15.999
   151         Cg      6    8SA     C3    151     0.0060     12.011
   152         Hc      6    8SA    H3E    152     0.0000      1.008
   153         Hc      6    8SA    H3A    153     0.0000      1.008
   154         Cg      6    8SA     C4    154     0.3320     12.011
   155         H1      6    8SA     H4    155     0.0000      1.008
   156         Oh      6    8SA     O4    156    -0.7620     15.999
   157         Ho      6    8SA    H4O    157     0.4150      1.008
   158         Cg      6    8SA     C5    158     0.3080     12.011
   159         H1      6    8SA     H5    159     0.0000      1.008
   160         Ng      6    8SA     N5    160    -0.6290     14.007
   161          H      6    8SA    H5N    161     0.2800      1.008
   162          C      6    8SA    C5N    162     0.6320     12.011
   163         Cg      6    8SA    CME    163    -0.0030     12.011
   164         Hc      6    8SA    H3M    164     0.0000      1.008
   165         Hc      6    8SA    H2M    165     0.0000      1.008
   166         Hc      6    8SA    H1M    166     0.0000      1.008
   167          O      6    8SA    O5N    167    -0.5930     15.999
   168         Cg      6    8SA     C6    168     0.2200     12.011
   169         H1      6    8SA     H6    169     0.0000      1.008
   170         Oy      6    8SA     O6    170    -0.4030     15.999
   171         Cg      6    8SA     C7    171     0.1110     12.011
   172         H1      6    8SA     H7    172     0.0000      1.008
   173         Oh      6    8SA     O7    173    -0.7210     15.999
   174         Ho      6    8SA    H7O    174     0.4350      1.008
   175         Cg      6    8SA     C8    175     0.4920     12.011
   176         H1      6    8SA     H8    176     0.0000      1.008
   177         Cg      6    8SA     C9    177     0.1780     12.011
   178         H1      6    8SA    H9S    178     0.0000      1.008
   179         H1      6    8SA    H9R    179     0.0000      1.008
   180         Oh      6    8SA     O9    180    -0.6890     15.999
   181         Ho      6    8SA    H9O    181     0.4080      1.008
   182         Os      6    8SA     O8    182    -0.5210     15.999
; Residue 7 8SA q=-1.000
; 
   183         Cy      7    8SA     C2    183     0.2370     12.011
   184          C      7    8SA     C1    184     0.7890     12.011
   185         O2      7    8SA    O1A    185    -0.7610     15.999
   186         O2      7    8SA    O1B    186    -0.7610     15.999
   187         Cg      7    8SA     C3    187     0.0060     12.011
   188         Hc      7    8SA    H3E    188     0.0000      1.008
   189         Hc      7    8SA    H3A    189     0.0000      1.008
   190         Cg      7    8SA     C4    190     0.3320     12.011
   191         H1      7    8SA     H4    191     0.0000      1.008
   192         Oh      7    8SA     O4    192    -0.7620     15.999
   193         Ho      7    8SA    H4O    193     0.4150      1.008
   194         Cg      7    8SA     C5    194     0.3080     12.011
   195         H1      7    8SA     H5    195     0.0000      1.008
   196         Ng      7    8SA     N5    196    -0.6290     14.007
   197          H      7    8SA    H5N    197     0.2800      1.008
   198          C      7    8SA    C5N    198     0.6320     12.011
   199         Cg      7    8SA    CME    199    -0.0030     12.011
   200         Hc      7    8SA    H3M    200     0.0000      1.008
   201         Hc      7    8SA    H2M    201     0.0000      1.008
   202         Hc      7    8SA    H1M    202     0.0000      1.008
   203          O      7    8SA    O5N    203    -0.5930     15.999
   204         Cg      7    8SA     C6    204     0.2200     12.011
   205         H1      7    8SA     H6    205     0.0000      1.008
   206         Oy      7    8SA     O6    206    -0.4030     15.999
   207         Cg      7    8SA     C7    207     0.1110     12.011
   208         H1      7    8SA     H7    208     0.0000      1.008
   209         Oh      7    8SA     O7    209    -0.7210     15.999
   210         Ho      7    8SA    H7O    210     0.4350      1.008
   211         Cg      7    8SA     C8    211     0.4920     12.011
   212         H1      7    8SA     H8    212     0.0000      1.008
   213         Cg      7    8SA     C9    213     0.1780     12.011
   214         H1      7    8SA    H9S    214     0.0000      1.008
   215         H1      7    8SA    H9R    215     0.0000      1.008
   216         Oh      7    8SA     O9    216    -0.6890     15.999
   217         Ho      7    8SA    H9O    217     0.4080      1.008
   218         Os      7    8SA     O8    218    -0.5210     15.999
; Residue 8 8SA q=-1.000
; 
   219         Cy      8    8SA     C2    219     0.2370     12.011
   220          C      8    8SA     C1    220     0.7890     12.011
   221         O2      8    8SA    O1A    221    -0.7610     15.999
   222         O2      8    8SA    O1B    222    -0.7610     15.999
   223         Cg      8    8SA     C3    223     0.0060     12.011
   224         Hc      8    8SA    H3E    224     0.0000      1.008
   225         Hc      8    8SA    H3A    225     0.0000      1.008
   226         Cg      8    8SA     C4    226     0.3320     12.011
   227         H1      8    8SA     H4    227     0.0000      1.008
   228         Oh      8    8SA     O4    228    -0.7620     15.999
   229         Ho      8    8SA    H4O    229     0.4150      1.008
   230         Cg      8    8SA     C5    230     0.3080     12.011
   231         H1      8    8SA     H5    231     0.0000      1.008
   232         Ng      8    8SA     N5    232    -0.6290     14.007
   233          H      8    8SA    H5N    233     0.2800      1.008
   234          C      8    8SA    C5N    234     0.6320     12.011
   235         Cg      8    8SA    CME    235    -0.0030     12.011
   236         Hc      8    8SA    H3M    236     0.0000      1.008
   237         Hc      8    8SA    H2M    237     0.0000      1.008
   238         Hc      8    8SA    H1M    238     0.0000      1.008
   239          O      8    8SA    O5N    239    -0.5930     15.999
   240         Cg      8    8SA     C6    240     0.2200     12.011
   241         H1      8    8SA     H6    241     0.0000      1.008
   242         Oy      8    8SA     O6    242    -0.4030     15.999
   243         Cg      8    8SA     C7    243     0.1110     12.011
   244         H1      8    8SA     H7    244     0.0000      1.008
   245         Oh      8    8SA     O7    245    -0.7210     15.999
   246         Ho      8    8SA    H7O    246     0.4350      1.008
   247         Cg      8    8SA     C8    247     0.4920     12.011
   248         H1      8    8SA     H8    248     0.0000      1.008
   249         Cg      8    8SA     C9    249     0.1780     12.011
   250         H1      8    8SA    H9S    250     0.0000      1.008
   251         H1      8    8SA    H9R    251     0.0000      1.008
   252         Oh      8    8SA     O9    252    -0.6890     15.999
   253         Ho      8    8SA    H9O    253     0.4080      1.008
   254         Os      8    8SA     O8    254    -0.5210     15.999
; Residue 9 8SA q=-1.000
; 
   255         Cy      9    8SA     C2    255     0.2370     12.011
   256          C      9    8SA     C1    256     0.7890     12.011
   257         O2      9    8SA    O1A    257    -0.7610     15.999
   258         O2      9    8SA    O1B    258    -0.7610     15.999
   259         Cg      9    8SA     C3    259     0.0060     12.011
   260         Hc      9    8SA    H3E    260     0.0000      1.008
   261         Hc      9    8SA    H3A    261     0.0000      1.008
   262         Cg      9    8SA     C4    262     0.3320     12.011
   263         H1      9    8SA     H4    263     0.0000      1.008
   264         Oh      9    8SA     O4    264    -0.7620     15.999
   265         Ho      9    8SA    H4O    265     0.4150      1.008
   266         Cg      9    8SA     C5    266     0.3080     12.011
   267         H1      9    8SA     H5    267     0.0000      1.008
   268         Ng      9    8SA     N5    268    -0.6290     14.007
   269          H      9    8SA    H5N    269     0.2800      1.008
   270          C      9    8SA    C5N    270     0.6320     12.011
   271         Cg      9    8SA    CME    271    -0.0030     12.011
   272         Hc      9    8SA    H3M    272     0.0000      1.008
   273         Hc      9    8SA    H2M    273     0.0000      1.008
   274         Hc      9    8SA    H1M    274     0.0000      1.008
   275          O      9    8SA    O5N    275    -0.5930     15.999
   276         Cg      9    8SA     C6    276     0.2200     12.011
   277         H1      9    8SA     H6    277     0.0000      1.008
   278         Oy      9    8SA     O6    278    -0.4030     15.999
   279         Cg      9    8SA     C7    279     0.1110     12.011
   280         H1      9    8SA     H7    280     0.0000      1.008
   281         Oh      9    8SA     O7    281    -0.7210     15.999
   282         Ho      9    8SA    H7O    282     0.4350      1.008
   283         Cg      9    8SA     C8    283     0.4920     12.011
   284         H1      9    8SA     H8    284     0.0000      1.008
   285         Cg      9    8SA     C9    285     0.1780     12.011
   286         H1      9    8SA    H9S    286     0.0000      1.008
   287         H1      9    8SA    H9R    287     0.0000      1.008
   288         Oh      9    8SA     O9    288    -0.6890     15.999
   289         Ho      9    8SA    H9O    289     0.4080      1.008
   290         Os      9    8SA     O8    290    -0.5210     15.999
; Residue 10 8SA q=-1.000
; 
   291         Cy     10    8SA     C2    291     0.2370     12.011
   292          C     10    8SA     C1    292     0.7890     12.011
   293         O2     10    8SA    O1A    293    -0.7610     15.999
   294         O2     10    8SA    O1B    294    -0.7610     15.999
   295         Cg     10    8SA     C3    295     0.0060     12.011
   296         Hc     10    8SA    H3E    296     0.0000      1.008
   297         Hc     10    8SA    H3A    297     0.0000      1.008
   298         Cg     10    8SA     C4    298     0.3320     12.011
   299         H1     10    8SA     H4    299     0.0000      1.008
   300         Oh     10    8SA     O4    300    -0.7620     15.999
   301         Ho     10    8SA    H4O    301     0.4150      1.008
   302         Cg     10    8SA     C5    302     0.3080     12.011
   303         H1     10    8SA     H5    303     0.0000      1.008
   304         Ng     10    8SA     N5    304    -0.6290     14.007
   305          H     10    8SA    H5N    305     0.2800      1.008
   306          C     10    8SA    C5N    306     0.6320     12.011
   307         Cg     10    8SA    CME    307    -0.0030     12.011
   308         Hc     10    8SA    H3M    308     0.0000      1.008
   309         Hc     10    8SA    H2M    309     0.0000      1.008
   310         Hc     10    8SA    H1M    310     0.0000      1.008
   311          O     10    8SA    O5N    311    -0.5930     15.999
   312         Cg     10    8SA     C6    312     0.2200     12.011
   313         H1     10    8SA     H6    313     0.0000      1.008
   314         Oy     10    8SA     O6    314    -0.4030     15.999
   315         Cg     10    8SA     C7    315     0.1110     12.011
   316         H1     10    8SA     H7    316     0.0000      1.008
   317         Oh     10    8SA     O7    317    -0.7210     15.999
   318         Ho     10    8SA    H7O    318     0.4350      1.008
   319         Cg     10    8SA     C8    319     0.4920     12.011
   320         H1     10    8SA     H8    320     0.0000      1.008
   321         Cg     10    8SA     C9    321     0.1780     12.011
   322         H1     10    8SA    H9S    322     0.0000      1.008
   323         H1     10    8SA    H9R    323     0.0000      1.008
   324         Oh     10    8SA     O9    324    -0.6890     15.999
   325         Ho     10    8SA    H9O    325     0.4080      1.008
   326         Os     10    8SA     O8    326    -0.5210     15.999
; Residue 11 8SA q=-1.000
; 
   327         Cy     11    8SA     C2    327     0.2370     12.011
   328          C     11    8SA     C1    328     0.7890     12.011
   329         O2     11    8SA    O1A    329    -0.7610     15.999
   330         O2     11    8SA    O1B    330    -0.7610     15.999
   331         Cg     11    8SA     C3    331     0.0060     12.011
   332         Hc     11    8SA    H3E    332     0.0000      1.008
   333         Hc     11    8SA    H3A    333     0.0000      1.008
   334         Cg     11    8SA     C4    334     0.3320     12.011
   335         H1     11    8SA     H4    335     0.0000      1.008
   336         Oh     11    8SA     O4    336    -0.7620     15.999
   337         Ho     11    8SA    H4O    337     0.4150      1.008
   338         Cg     11    8SA     C5    338     0.3080     12.011
   339         H1     11    8SA     H5    339     0.0000      1.008
   340         Ng     11    8SA     N5    340    -0.6290     14.007
   341          H     11    8SA    H5N    341     0.2800      1.008
   342          C     11    8SA    C5N    342     0.6320     12.011
   343         Cg     11    8SA    CME    343    -0.0030     12.011
   344         Hc     11    8SA    H3M    344     0.0000      1.008
   345         Hc     11    8SA    H2M    345     0.0000      1.008
   346         Hc     11    8SA    H1M    346     0.0000      1.008
   347          O     11    8SA    O5N    347    -0.5930     15.999
   348         Cg     11    8SA     C6    348     0.2200     12.011
   349         H1     11    8SA     H6    349     0.0000      1.008
   350         Oy     11    8SA     O6    350    -0.4030     15.999
   351         Cg     11    8SA     C7    351     0.1110     12.011
   352         H1     11    8SA     H7    352     0.0000      1.008
   353         Oh     11    8SA     O7    353    -0.7210     15.999
   354         Ho     11    8SA    H7O    354     0.4350      1.008
   355         Cg     11    8SA     C8    355     0.4920     12.011
   356         H1     11    8SA     H8    356     0.0000      1.008
   357         Cg     11    8SA     C9    357     0.1780     12.011
   358         H1     11    8SA    H9S    358     0.0000      1.008
   359         H1     11    8SA    H9R    359     0.0000      1.008
   360         Oh     11    8SA     O9    360    -0.6890     15.999
   361         Ho     11    8SA    H9O    361     0.4080      1.008
   362         Os     11    8SA     O8    362    -0.5210     15.999
; Residue 12 8SA q=-1.000
; 
   363         Cy     12    8SA     C2    363     0.2370     12.011
   364          C     12    8SA     C1    364     0.7890     12.011
   365         O2     12    8SA    O1A    365    -0.7610     15.999
   366         O2     12    8SA    O1B    366    -0.7610     15.999
   367         Cg     12    8SA     C3    367     0.0060     12.011
   368         Hc     12    8SA    H3E    368     0.0000      1.008
   369         Hc     12    8SA    H3A    369     0.0000      1.008
   370         Cg     12    8SA     C4    370     0.3320     12.011
   371         H1     12    8SA     H4    371     0.0000      1.008
   372         Oh     12    8SA     O4    372    -0.7620     15.999
   373         Ho     12    8SA    H4O    373     0.4150      1.008
   374         Cg     12    8SA     C5    374     0.3080     12.011
   375         H1     12    8SA     H5    375     0.0000      1.008
   376         Ng     12    8SA     N5    376    -0.6290     14.007
   377          H     12    8SA    H5N    377     0.2800      1.008
   378          C     12    8SA    C5N    378     0.6320     12.011
   379         Cg     12    8SA    CME    379    -0.0030     12.011
   380         Hc     12    8SA    H3M    380     0.0000      1.008
   381         Hc     12    8SA    H2M    381     0.0000      1.008
   382         Hc     12    8SA    H1M    382     0.0000      1.008
   383          O     12    8SA    O5N    383    -0.5930     15.999
   384         Cg     12    8SA     C6    384     0.2200     12.011
   385         H1     12    8SA     H6    385     0.0000      1.008
   386         Oy     12    8SA     O6    386    -0.4030     15.999
   387         Cg     12    8SA     C7    387     0.1110     12.011
   388         H1     12    8SA     H7    388     0.0000      1.008
   389         Oh     12    8SA     O7    389    -0.7210     15.999
   390         Ho     12    8SA    H7O    390     0.4350      1.008
   391         Cg     12    8SA     C8    391     0.4920     12.011
   392         H1     12    8SA     H8    392     0.0000      1.008
   393         Cg     12    8SA     C9    393     0.1780     12.011
   394         H1     12    8SA    H9S    394     0.0000      1.008
   395         H1     12    8SA    H9R    395     0.0000      1.008
   396         Oh     12    8SA     O9    396    -0.6890     15.999
   397         Ho     12    8SA    H9O    397     0.4080      1.008
   398         Os     12    8SA     O8    398    -0.5210     15.999
; Residue 13 8SA q=-1.000
; 
   399         Cy     13    8SA     C2    399     0.2370     12.011
   400          C     13    8SA     C1    400     0.7890     12.011
   401         O2     13    8SA    O1A    401    -0.7610     15.999
   402         O2     13    8SA    O1B    402    -0.7610     15.999
   403         Cg     13    8SA     C3    403     0.0060     12.011
   404         Hc     13    8SA    H3E    404     0.0000      1.008
   405         Hc     13    8SA    H3A    405     0.0000      1.008
   406         Cg     13    8SA     C4    406     0.3320     12.011
   407         H1     13    8SA     H4    407     0.0000      1.008
   408         Oh     13    8SA     O4    408    -0.7620     15.999
   409         Ho     13    8SA    H4O    409     0.4150      1.008
   410         Cg     13    8SA     C5    410     0.3080     12.011
   411         H1     13    8SA     H5    411     0.0000      1.008
   412         Ng     13    8SA     N5    412    -0.6290     14.007
   413          H     13    8SA    H5N    413     0.2800      1.008
   414          C     13    8SA    C5N    414     0.6320     12.011
   415         Cg     13    8SA    CME    415    -0.0030     12.011
   416         Hc     13    8SA    H3M    416     0.0000      1.008
   417         Hc     13    8SA    H2M    417     0.0000      1.008
   418         Hc     13    8SA    H1M    418     0.0000      1.008
   419          O     13    8SA    O5N    419    -0.5930     15.999
   420         Cg     13    8SA     C6    420     0.2200     12.011
   421         H1     13    8SA     H6    421     0.0000      1.008
   422         Oy     13    8SA     O6    422    -0.4030     15.999
   423         Cg     13    8SA     C7    423     0.1110     12.011
   424         H1     13    8SA     H7    424     0.0000      1.008
   425         Oh     13    8SA     O7    425    -0.7210     15.999
   426         Ho     13    8SA    H7O    426     0.4350      1.008
   427         Cg     13    8SA     C8    427     0.4920     12.011
   428         H1     13    8SA     H8    428     0.0000      1.008
   429         Cg     13    8SA     C9    429     0.1780     12.011
   430         H1     13    8SA    H9S    430     0.0000      1.008
   431         H1     13    8SA    H9R    431     0.0000      1.008
   432         Oh     13    8SA     O9    432    -0.6890     15.999
   433         Ho     13    8SA    H9O    433     0.4080      1.008
   434         Os     13    8SA     O8    434    -0.5210     15.999
; Residue 14 8SA q=-1.000
; 
   435         Cy     14    8SA     C2    435     0.2370     12.011
   436          C     14    8SA     C1    436     0.7890     12.011
   437         O2     14    8SA    O1A    437    -0.7610     15.999
   438         O2     14    8SA    O1B    438    -0.7610     15.999
   439         Cg     14    8SA     C3    439     0.0060     12.011
   440         Hc     14    8SA    H3E    440     0.0000      1.008
   441         Hc     14    8SA    H3A    441     0.0000      1.008
   442         Cg     14    8SA     C4    442     0.3320     12.011
   443         H1     14    8SA     H4    443     0.0000      1.008
   444         Oh     14    8SA     O4    444    -0.7620     15.999
   445         Ho     14    8SA    H4O    445     0.4150      1.008
   446         Cg     14    8SA     C5    446     0.3080     12.011
   447         H1     14    8SA     H5    447     0.0000      1.008
   448         Ng     14    8SA     N5    448    -0.6290     14.007
   449          H     14    8SA    H5N    449     0.2800      1.008
   450          C     14    8SA    C5N    450     0.6320     12.011
   451         Cg     14    8SA    CME    451    -0.0030     12.011
   452         Hc     14    8SA    H3M    452     0.0000      1.008
   453         Hc     14    8SA    H2M    453     0.0000      1.008
   454         Hc     14    8SA    H1M    454     0.0000      1.008
   455          O     14    8SA    O5N    455    -0.5930     15.999
   456         Cg     14    8SA     C6    456     0.2200     12.011
   457         H1     14    8SA     H6    457     0.0000      1.008
   458         Oy     14    8SA     O6    458    -0.4030     15.999
   459         Cg     14    8SA     C7    459     0.1110     12.011
   460         H1     14    8SA     H7    460     0.0000      1.008
   461         Oh     14    8SA     O7    461    -0.7210     15.999
   462         Ho     14    8SA    H7O    462     0.4350      1.008
   463         Cg     14    8SA     C8    463     0.4920     12.011
   464         H1     14    8SA     H8    464     0.0000      1.008
   465         Cg     14    8SA     C9    465     0.1780     12.011
   466         H1     14    8SA    H9S    466     0.0000      1.008
   467         H1     14    8SA    H9R    467     0.0000      1.008
   468         Oh     14    8SA     O9    468    -0.6890     15.999
   469         Ho     14    8SA    H9O    469     0.4080      1.008
   470         Os     14    8SA     O8    470    -0.5210     15.999
; Residue 15 8SA q=-1.000
; 
   471         Cy     15    8SA     C2    471     0.2370     12.011
   472          C     15    8SA     C1    472     0.7890     12.011
   473         O2     15    8SA    O1A    473    -0.7610     15.999
   474         O2     15    8SA    O1B    474    -0.7610     15.999
   475         Cg     15    8SA     C3    475     0.0060     12.011
   476         Hc     15    8SA    H3E    476     0.0000      1.008
   477         Hc     15    8SA    H3A    477     0.0000      1.008
   478         Cg     15    8SA     C4    478     0.3320     12.011
   479         H1     15    8SA     H4    479     0.0000      1.008
   480         Oh     15    8SA     O4    480    -0.7620     15.999
   481         Ho     15    8SA    H4O    481     0.4150      1.008
   482         Cg     15    8SA     C5    482     0.3080     12.011
   483         H1     15    8SA     H5    483     0.0000      1.008
   484         Ng     15    8SA     N5    484    -0.6290     14.007
   485          H     15    8SA    H5N    485     0.2800      1.008
   486          C     15    8SA    C5N    486     0.6320     12.011
   487         Cg     15    8SA    CME    487    -0.0030     12.011
   488         Hc     15    8SA    H3M    488     0.0000      1.008
   489         Hc     15    8SA    H2M    489     0.0000      1.008
   490         Hc     15    8SA    H1M    490     0.0000      1.008
   491          O     15    8SA    O5N    491    -0.5930     15.999
   492         Cg     15    8SA     C6    492     0.2200     12.011
   493         H1     15    8SA     H6    493     0.0000      1.008
   494         Oy     15    8SA     O6    494    -0.4030     15.999
   495         Cg     15    8SA     C7    495     0.1110     12.011
   496         H1     15    8SA     H7    496     0.0000      1.008
   497         Oh     15    8SA     O7    497    -0.7210     15.999
   498         Ho     15    8SA    H7O    498     0.4350      1.008
   499         Cg     15    8SA     C8    499     0.4920     12.011
   500         H1     15    8SA     H8    500     0.0000      1.008
   501         Cg     15    8SA     C9    501     0.1780     12.011
   502         H1     15    8SA    H9S    502     0.0000      1.008
   503         H1     15    8SA    H9R    503     0.0000      1.008
   504         Oh     15    8SA     O9    504    -0.6890     15.999
   505         Ho     15    8SA    H9O    505     0.4080      1.008
   506         Os     15    8SA     O8    506    -0.5210     15.999
; Residue 16 8SA q=-1.000
; 
   507         Cy     16    8SA     C2    507     0.2370     12.011
   508          C     16    8SA     C1    508     0.7890     12.011
   509         O2     16    8SA    O1A    509    -0.7610     15.999
   510         O2     16    8SA    O1B    510    -0.7610     15.999
   511         Cg     16    8SA     C3    511     0.0060     12.011
   512         Hc     16    8SA    H3E    512     0.0000      1.008
   513         Hc     16    8SA    H3A    513     0.0000      1.008
   514         Cg     16    8SA     C4    514     0.3320     12.011
   515         H1     16    8SA     H4    515     0.0000      1.008
   516         Oh     16    8SA     O4    516    -0.7620     15.999
   517         Ho     16    8SA    H4O    517     0.4150      1.008
   518         Cg     16    8SA     C5    518     0.3080     12.011
   519         H1     16    8SA     H5    519     0.0000      1.008
   520         Ng     16    8SA     N5    520    -0.6290     14.007
   521          H     16    8SA    H5N    521     0.2800      1.008
   522          C     16    8SA    C5N    522     0.6320     12.011
   523         Cg     16    8SA    CME    523    -0.0030     12.011
   524         Hc     16    8SA    H3M    524     0.0000      1.008
   525         Hc     16    8SA    H2M    525     0.0000      1.008
   526         Hc     16    8SA    H1M    526     0.0000      1.008
   527          O     16    8SA    O5N    527    -0.5930     15.999
   528         Cg     16    8SA     C6    528     0.2200     12.011
   529         H1     16    8SA     H6    529     0.0000      1.008
   530         Oy     16    8SA     O6    530    -0.4030     15.999
   531         Cg     16    8SA     C7    531     0.1110     12.011
   532         H1     16    8SA     H7    532     0.0000      1.008
   533         Oh     16    8SA     O7    533    -0.7210     15.999
   534         Ho     16    8SA    H7O    534     0.4350      1.008
   535         Cg     16    8SA     C8    535     0.4920     12.011
   536         H1     16    8SA     H8    536     0.0000      1.008
   537         Cg     16    8SA     C9    537     0.1780     12.011
   538         H1     16    8SA    H9S    538     0.0000      1.008
   539         H1     16    8SA    H9R    539     0.0000      1.008
   540         Oh     16    8SA     O9    540    -0.6890     15.999
   541         Ho     16    8SA    H9O    541     0.4080      1.008
   542         Os     16    8SA     O8    542    -0.5210     15.999
; Residue 17 8SA q=-1.000
; 
   543         Cy     17    8SA     C2    543     0.2370     12.011
   544          C     17    8SA     C1    544     0.7890     12.011
   545         O2     17    8SA    O1A    545    -0.7610     15.999
   546         O2     17    8SA    O1B    546    -0.7610     15.999
   547         Cg     17    8SA     C3    547     0.0060     12.011
   548         Hc     17    8SA    H3E    548     0.0000      1.008
   549         Hc     17    8SA    H3A    549     0.0000      1.008
   550         Cg     17    8SA     C4    550     0.3320     12.011
   551         H1     17    8SA     H4    551     0.0000      1.008
   552         Oh     17    8SA     O4    552    -0.7620     15.999
   553         Ho     17    8SA    H4O    553     0.4150      1.008
   554         Cg     17    8SA     C5    554     0.3080     12.011
   555         H1     17    8SA     H5    555     0.0000      1.008
   556         Ng     17    8SA     N5    556    -0.6290     14.007
   557          H     17    8SA    H5N    557     0.2800      1.008
   558          C     17    8SA    C5N    558     0.6320     12.011
   559         Cg     17    8SA    CME    559    -0.0030     12.011
   560         Hc     17    8SA    H3M    560     0.0000      1.008
   561         Hc     17    8SA    H2M    561     0.0000      1.008
   562         Hc     17    8SA    H1M    562     0.0000      1.008
   563          O     17    8SA    O5N    563    -0.5930     15.999
   564         Cg     17    8SA     C6    564     0.2200     12.011
   565         H1     17    8SA     H6    565     0.0000      1.008
   566         Oy     17    8SA     O6    566    -0.4030     15.999
   567         Cg     17    8SA     C7    567     0.1110     12.011
   568         H1     17    8SA     H7    568     0.0000      1.008
   569         Oh     17    8SA     O7    569    -0.7210     15.999
   570         Ho     17    8SA    H7O    570     0.4350      1.008
   571         Cg     17    8SA     C8    571     0.4920     12.011
   572         H1     17    8SA     H8    572     0.0000      1.008
   573         Cg     17    8SA     C9    573     0.1780     12.011
   574         H1     17    8SA    H9S    574     0.0000      1.008
   575         H1     17    8SA    H9R    575     0.0000      1.008
   576         Oh     17    8SA     O9    576    -0.6890     15.999
   577         Ho     17    8SA    H9O    577     0.4080      1.008
   578         Os     17    8SA     O8    578    -0.5210     15.999
; Residue 18 8SA q=-1.000
; 
   579         Cy     18    8SA     C2    579     0.2370     12.011
   580          C     18    8SA     C1    580     0.7890     12.011
   581         O2     18    8SA    O1A    581    -0.7610     15.999
   582         O2     18    8SA    O1B    582    -0.7610     15.999
   583         Cg     18    8SA     C3    583     0.0060     12.011
   584         Hc     18    8SA    H3E    584     0.0000      1.008
   585         Hc     18    8SA    H3A    585     0.0000      1.008
   586         Cg     18    8SA     C4    586     0.3320     12.011
   587         H1     18    8SA     H4    587     0.0000      1.008
   588         Oh     18    8SA     O4    588    -0.7620     15.999
   589         Ho     18    8SA    H4O    589     0.4150      1.008
   590         Cg     18    8SA     C5    590     0.3080     12.011
   591         H1     18    8SA     H5    591     0.0000      1.008
   592         Ng     18    8SA     N5    592    -0.6290     14.007
   593          H     18    8SA    H5N    593     0.2800      1.008
   594          C     18    8SA    C5N    594     0.6320     12.011
   595         Cg     18    8SA    CME    595    -0.0030     12.011
   596         Hc     18    8SA    H3M    596     0.0000      1.008
   597         Hc     18    8SA    H2M    597     0.0000      1.008
   598         Hc     18    8SA    H1M    598     0.0000      1.008
   599          O     18    8SA    O5N    599    -0.5930     15.999
   600         Cg     18    8SA     C6    600     0.2200     12.011
   601         H1     18    8SA     H6    601     0.0000      1.008
   602         Oy     18    8SA     O6    602    -0.4030     15.999
   603         Cg     18    8SA     C7    603     0.1110     12.011
   604         H1     18    8SA     H7    604     0.0000      1.008
   605         Oh     18    8SA     O7    605    -0.7210     15.999
   606         Ho     18    8SA    H7O    606     0.4350      1.008
   607         Cg     18    8SA     C8    607     0.4920     12.011
   608         H1     18    8SA     H8    608     0.0000      1.008
   609         Cg     18    8SA     C9    609     0.1780     12.011
   610         H1     18    8SA    H9S    610     0.0000      1.008
   611         H1     18    8SA    H9R    611     0.0000      1.008
   612         Oh     18    8SA     O9    612    -0.6890     15.999
   613         Ho     18    8SA    H9O    613     0.4080      1.008
   614         Os     18    8SA     O8    614    -0.5210     15.999
; Residue 19 8SA q=-1.000
; 
   615         Cy     19    8SA     C2    615     0.2370     12.011
   616          C     19    8SA     C1    616     0.7890     12.011
   617         O2     19    8SA    O1A    617    -0.7610     15.999
   618         O2     19    8SA    O1B    618    -0.7610     15.999
   619         Cg     19    8SA     C3    619     0.0060     12.011
   620         Hc     19    8SA    H3E    620     0.0000      1.008
   621         Hc     19    8SA    H3A    621     0.0000      1.008
   622         Cg     19    8SA     C4    622     0.3320     12.011
   623         H1     19    8SA     H4    623     0.0000      1.008
   624         Oh     19    8SA     O4    624    -0.7620     15.999
   625         Ho     19    8SA    H4O    625     0.4150      1.008
   626         Cg     19    8SA     C5    626     0.3080     12.011
   627         H1     19    8SA     H5    627     0.0000      1.008
   628         Ng     19    8SA     N5    628    -0.6290     14.007
   629          H     19    8SA    H5N    629     0.2800      1.008
   630          C     19    8SA    C5N    630     0.6320     12.011
   631         Cg     19    8SA    CME    631    -0.0030     12.011
   632         Hc     19    8SA    H3M    632     0.0000      1.008
   633         Hc     19    8SA    H2M    633     0.0000      1.008
   634         Hc     19    8SA    H1M    634     0.0000      1.008
   635          O     19    8SA    O5N    635    -0.5930     15.999
   636         Cg     19    8SA     C6    636     0.2200     12.011
   637         H1     19    8SA     H6    637     0.0000      1.008
   638         Oy     19    8SA     O6    638    -0.4030     15.999
   639         Cg     19    8SA     C7    639     0.1110     12.011
   640         H1     19    8SA     H7    640     0.0000      1.008
   641         Oh     19    8SA     O7    641    -0.7210     15.999
   642         Ho     19    8SA    H7O    642     0.4350      1.008
   643         Cg     19    8SA     C8    643     0.4920     12.011
   644         H1     19    8SA     H8    644     0.0000      1.008
   645         Cg     19    8SA     C9    645     0.1780     12.011
   646         H1     19    8SA    H9S    646     0.0000      1.008
   647         H1     19    8SA    H9R    647     0.0000      1.008
   648         Oh     19    8SA     O9    648    -0.6890     15.999
   649         Ho     19    8SA    H9O    649     0.4080      1.008
   650         Os     19    8SA     O8    650    -0.5210     15.999
; Residue 20 8SA q=-1.000
; 
   651         Cy     20    8SA     C2    651     0.2370     12.011
   652          C     20    8SA     C1    652     0.7890     12.011
   653         O2     20    8SA    O1A    653    -0.7610     15.999
   654         O2     20    8SA    O1B    654    -0.7610     15.999
   655         Cg     20    8SA     C3    655     0.0060     12.011
   656         Hc     20    8SA    H3E    656     0.0000      1.008
   657         Hc     20    8SA    H3A    657     0.0000      1.008
   658         Cg     20    8SA     C4    658     0.3320     12.011
   659         H1     20    8SA     H4    659     0.0000      1.008
   660         Oh     20    8SA     O4    660    -0.7620     15.999
   661         Ho     20    8SA    H4O    661     0.4150      1.008
   662         Cg     20    8SA     C5    662     0.3080     12.011
   663         H1     20    8SA     H5    663     0.0000      1.008
   664         Ng     20    8SA     N5    664    -0.6290     14.007
   665          H     20    8SA    H5N    665     0.2800      1.008
   666          C     20    8SA    C5N    666     0.6320     12.011
   667         Cg     20    8SA    CME    667    -0.0030     12.011
   668         Hc     20    8SA    H3M    668     0.0000      1.008
   669         Hc     20    8SA    H2M    669     0.0000      1.008
   670         Hc     20    8SA    H1M    670     0.0000      1.008
   671          O     20    8SA    O5N    671    -0.5930     15.999
   672         Cg     20    8SA     C6    672     0.2200     12.011
   673         H1     20    8SA     H6    673     0.0000      1.008
   674         Oy     20    8SA     O6    674    -0.4030     15.999
   675         Cg     20    8SA     C7    675     0.1110     12.011
   676         H1     20    8SA     H7    676     0.0000      1.008
   677         Oh     20    8SA     O7    677    -0.7210     15.999
   678         Ho     20    8SA    H7O    678     0.4350      1.008
   679         Cg     20    8SA     C8    679     0.4920     12.011
   680         H1     20    8SA     H8    680     0.0000      1.008
   681         Cg     20    8SA     C9    681     0.1780     12.011
   682         H1     20    8SA    H9S    682     0.0000      1.008
   683         H1     20    8SA    H9R    683     0.0000      1.008
   684         Oh     20    8SA     O9    684    -0.6890     15.999
   685         Ho     20    8SA    H9O    685     0.4080      1.008
   686         Os     20    8SA     O8    686    -0.5210     15.999
; Residue 21 0SA q=-0.806
; 
   687         Cy     21    0SA     C2    687     0.2370     12.011
   688          C     21    0SA     C1    688     0.7890     12.011
   689         O2     21    0SA    O1A    689    -0.7610     15.999
   690         O2     21    0SA    O1B    690    -0.7610     15.999
   691         Cg     21    0SA     C3    691     0.0060     12.011
   692         Hc     21    0SA    H3E    692     0.0000      1.008
   693         Hc     21    0SA    H3A    693     0.0000      1.008
   694         Cg     21    0SA     C4    694     0.3320     12.011
   695         H1     21    0SA     H4    695     0.0000      1.008
   696         Cg     21    0SA     C5    696     0.3080     12.011
   697         H1     21    0SA     H5    697     0.0000      1.008
   698         Cg     21    0SA     C6    698     0.2200     12.011
   699         H1     21    0SA     H6    699     0.0000      1.008
   700         Cg     21    0SA     C7    700     0.1110     12.011
   701         H1     21    0SA     H7    701     0.0000      1.008
   702         Cg     21    0SA     C8    702     0.4920     12.011
   703         H1     21    0SA     H8    703     0.0000      1.008
   704         Cg     21    0SA     C9    704     0.1780     12.011
   705         H1     21    0SA    H9S    705     0.0000      1.008
   706         H1     21    0SA    H9R    706     0.0000      1.008
   707         Oh     21    0SA     O9    707    -0.6890     15.999
   708         Ho     21    0SA    H9O    708     0.4080      1.008
   709         Oh     21    0SA     O8    709    -0.7390     15.999
   710         Ho     21    0SA    H8O    710     0.4120      1.008
   711         Oh     21    0SA     O7    711    -0.7210     15.999
   712         Ho     21    0SA    H7O    712     0.4350      1.008
   713         Oy     21    0SA     O6    713    -0.4030     15.999
   714         Ng     21    0SA     N5    714    -0.6290     14.007
   715          H     21    0SA    H5N    715     0.2800      1.008
   716          C     21    0SA    C5N    716     0.6320     12.011
   717         Cg     21    0SA    CME    717    -0.0030     12.011
   718         Hc     21    0SA    H3M    718     0.0000      1.008
   719         Hc     21    0SA    H2M    719     0.0000      1.008
   720         Hc     21    0SA    H1M    720     0.0000      1.008
   721          O     21    0SA    O5N    721    -0.5930     15.999
   722         Oh     21    0SA     O4    722    -0.7620     15.999
   723         Ho     21    0SA    H4O    723     0.4150      1.008

[ bonds ]
;   ai     aj   funct   c0   c1
     1      2      1
     2      3      1
     3      4      1
     3      7      1
     3     26      1
     4      5      1
     4      6      1
     7      8      1
     7      9      1
     7     10      1
    10     11      1
    10     12      1
    10     14      1
    12     13      1
    14     15      1
    14     16      1
    14     24      1
    16     17      1
    16     18      1
    18     19      1
    18     23      1
    19     20      1
    19     21      1
    19     22      1
    24     25      1
    24     26      1
    24     27      1
    27     28      1
    27     29      1
    27     31      1
    29     30      1
    31     32      1
    31     33      1
    31     38      1
    33     34      1
    33     35      1
    33     36      1
    36     37      1
    38     39      1
    39     40      1
    39     43      1
    39     62      1
    40     41      1
    40     42      1
    43     44      1
    43     45      1
    43     46      1
    46     47      1
    46     48      1
    46     50      1
    48     49      1
    50     51      1
    50     52      1
    50     60      1
    52     53      1
    52     54      1
    54     55      1
    54     59      1
    55     56      1
    55     57      1
    55     58      1
    60     61      1
    60     62      1
    60     63      1
    63     64      1
    63     65      1
    63     67      1
    65     66      1
    67     68      1
    67     69      1
    67     74      1
    69     70      1
    69     71      1
    69     72      1
    72     73      1
    74     75      1
    75     76      1
    75     79      1
    75     98      1
    76     77      1
    76     78      1
    79     80      1
    79     81      1
    79     82      1
    82     83      1
    82     84      1
    82     86      1
    84     85      1
    86     87      1
    86     88      1
    86     96      1
    88     89      1
    88     90      1
    90     91      1
    90     95      1
    91     92      1
    91     93      1
    91     94      1
    96     97      1
    96     98      1
    96     99      1
    99    100      1
    99    101      1
    99    103      1
   101    102      1
   103    104      1
   103    105      1
   103    110      1
   105    106      1
   105    107      1
   105    108      1
   108    109      1
   110    111      1
   111    112      1
   111    115      1
   111    134      1
   112    113      1
   112    114      1
   115    116      1
   115    117      1
   115    118      1
   118    119      1
   118    120      1
   118    122      1
   120    121      1
   122    123      1
   122    124      1
   122    132      1
   124    125      1
   124    126      1
   126    127      1
   126    131      1
   127    128      1
   127    129      1
   127    130      1
   132    133      1
   132    134      1
   132    135      1
   135    136      1
   135    137      1
   135    139      1
   137    138      1
   139    140      1
   139    141      1
   139    146      1
   141    142      1
   141    143      1
   141    144      1
   144    145      1
   146    147      1
   147    148      1
   147    151      1
   147    170      1
   148    149      1
   148    150      1
   151    152      1
   151    153      1
   151    154      1
   154    155      1
   154    156      1
   154    158      1
   156    157      1
   158    159      1
   158    160      1
   158    168      1
   160    161      1
   160    162      1
   162    163      1
   162    167      1
   163    164      1
   163    165      1
   163    166      1
   168    169      1
   168    170      1
   168    171      1
   171    172      1
   171    173      1
   171    175      1
   173    174      1
   175    176      1
   175    177      1
   175    182      1
   177    178      1
   177    179      1
   177    180      1
   180    181      1
   182    183      1
   183    184      1
   183    187      1
   183    206      1
   184    185      1
   184    186      1
   187    188      1
   187    189      1
   187    190      1
   190    191      1
   190    192      1
   190    194      1
   192    193      1
   194    195      1
   194    196      1
   194    204      1
   196    197      1
   196    198      1
   198    199      1
   198    203      1
   199    200      1
   199    201      1
   199    202      1
   204    205      1
   204    206      1
   204    207      1
   207    208      1
   207    209      1
   207    211      1
   209    210      1
   211    212      1
   211    213      1
   211    218      1
   213    214      1
   213    215      1
   213    216      1
   216    217      1
   218    219      1
   219    220      1
   219    223      1
   219    242      1
   220    221      1
   220    222      1
   223    224      1
   223    225      1
   223    226      1
   226    227      1
   226    228      1
   226    230      1
   228    229      1
   230    231      1
   230    232      1
   230    240      1
   232    233      1
   232    234      1
   234    235      1
   234    239      1
   235    236      1
   235    237      1
   235    238      1
   240    241      1
   240    242      1
   240    243      1
   243    244      1
   243    245      1
   243    247      1
   245    246      1
   247    248      1
   247    249      1
   247    254      1
   249    250      1
   249    251      1
   249    252      1
   252    253      1
   254    255      1
   255    256      1
   255    259      1
   255    278      1
   256    257      1
   256    258      1
   259    260      1
   259    261      1
   259    262      1
   262    263      1
   262    264      1
   262    266      1
   264    265      1
   266    267      1
   266    268      1
   266    276      1
   268    269      1
   268    270      1
   270    271      1
   270    275      1
   271    272      1
   271    273      1
   271    274      1
   276    277      1
   276    278      1
   276    279      1
   279    280      1
   279    281      1
   279    283      1
   281    282      1
   283    284      1
   283    285      1
   283    290      1
   285    286      1
   285    287      1
   285    288      1
   288    289      1
   290    291      1
   291    292      1
   291    295      1
   291    314      1
   292    293      1
   292    294      1
   295    296      1
   295    297      1
   295    298      1
   298    299      1
   298    300      1
   298    302      1
   300    301      1
   302    303      1
   302    304      1
   302    312      1
   304    305      1
   304    306      1
   306    307      1
   306    311      1
   307    308      1
   307    309      1
   307    310      1
   312    313      1
   312    314      1
   312    315      1
   315    316      1
   315    317      1
   315    319      1
   317    318      1
   319    320      1
   319    321      1
   319    326      1
   321    322      1
   321    323      1
   321    324      1
   324    325      1
   326    327      1
   327    328      1
   327    331      1
   327    350      1
   328    329      1
   328    330      1
   331    332      1
   331    333      1
   331    334      1
   334    335      1
   334    336      1
   334    338      1
   336    337      1
   338    339      1
   338    340      1
   338    348      1
   340    341      1
   340    342      1
   342    343      1
   342    347      1
   343    344      1
   343    345      1
   343    346      1
   348    349      1
   348    350      1
   348    351      1
   351    352      1
   351    353      1
   351    355      1
   353    354      1
   355    356      1
   355    357      1
   355    362      1
   357    358      1
   357    359      1
   357    360      1
   360    361      1
   362    363      1
   363    364      1
   363    367      1
   363    386      1
   364    365      1
   364    366      1
   367    368      1
   367    369      1
   367    370      1
   370    371      1
   370    372      1
   370    374      1
   372    373      1
   374    375      1
   374    376      1
   374    384      1
   376    377      1
   376    378      1
   378    379      1
   378    383      1
   379    380      1
   379    381      1
   379    382      1
   384    385      1
   384    386      1
   384    387      1
   387    388      1
   387    389      1
   387    391      1
   389    390      1
   391    392      1
   391    393      1
   391    398      1
   393    394      1
   393    395      1
   393    396      1
   396    397      1
   398    399      1
   399    400      1
   399    403      1
   399    422      1
   400    401      1
   400    402      1
   403    404      1
   403    405      1
   403    406      1
   406    407      1
   406    408      1
   406    410      1
   408    409      1
   410    411      1
   410    412      1
   410    420      1
   412    413      1
   412    414      1
   414    415      1
   414    419      1
   415    416      1
   415    417      1
   415    418      1
   420    421      1
   420    422      1
   420    423      1
   423    424      1
   423    425      1
   423    427      1
   425    426      1
   427    428      1
   427    429      1
   427    434      1
   429    430      1
   429    431      1
   429    432      1
   432    433      1
   434    435      1
   435    436      1
   435    439      1
   435    458      1
   436    437      1
   436    438      1
   439    440      1
   439    441      1
   439    442      1
   442    443      1
   442    444      1
   442    446      1
   444    445      1
   446    447      1
   446    448      1
   446    456      1
   448    449      1
   448    450      1
   450    451      1
   450    455      1
   451    452      1
   451    453      1
   451    454      1
   456    457      1
   456    458      1
   456    459      1
   459    460      1
   459    461      1
   459    463      1
   461    462      1
   463    464      1
   463    465      1
   463    470      1
   465    466      1
   465    467      1
   465    468      1
   468    469      1
   470    471      1
   471    472      1
   471    475      1
   471    494      1
   472    473      1
   472    474      1
   475    476      1
   475    477      1
   475    478      1
   478    479      1
   478    480      1
   478    482      1
   480    481      1
   482    483      1
   482    484      1
   482    492      1
   484    485      1
   484    486      1
   486    487      1
   486    491      1
   487    488      1
   487    489      1
   487    490      1
   492    493      1
   492    494      1
   492    495      1
   495    496      1
   495    497      1
   495    499      1
   497    498      1
   499    500      1
   499    501      1
   499    506      1
   501    502      1
   501    503      1
   501    504      1
   504    505      1
   506    507      1
   507    508      1
   507    511      1
   507    530      1
   508    509      1
   508    510      1
   511    512      1
   511    513      1
   511    514      1
   514    515      1
   514    516      1
   514    518      1
   516    517      1
   518    519      1
   518    520      1
   518    528      1
   520    521      1
   520    522      1
   522    523      1
   522    527      1
   523    524      1
   523    525      1
   523    526      1
   528    529      1
   528    530      1
   528    531      1
   531    532      1
   531    533      1
   531    535      1
   533    534      1
   535    536      1
   535    537      1
   535    542      1
   537    538      1
   537    539      1
   537    540      1
   540    541      1
   542    543      1
   543    544      1
   543    547      1
   543    566      1
   544    545      1
   544    546      1
   547    548      1
   547    549      1
   547    550      1
   550    551      1
   550    552      1
   550    554      1
   552    553      1
   554    555      1
   554    556      1
   554    564      1
   556    557      1
   556    558      1
   558    559      1
   558    563      1
   559    560      1
   559    561      1
   559    562      1
   564    565      1
   564    566      1
   564    567      1
   567    568      1
   567    569      1
   567    571      1
   569    570      1
   571    572      1
   571    573      1
   571    578      1
   573    574      1
   573    575      1
   573    576      1
   576    577      1
   578    579      1
   579    580      1
   579    583      1
   579    602      1
   580    581      1
   580    582      1
   583    584      1
   583    585      1
   583    586      1
   586    587      1
   586    588      1
   586    590      1
   588    589      1
   590    591      1
   590    592      1
   590    600      1
   592    593      1
   592    594      1
   594    595      1
   594    599      1
   595    596      1
   595    597      1
   595    598      1
   600    601      1
   600    602      1
   600    603      1
   603    604      1
   603    605      1
   603    607      1
   605    606      1
   607    608      1
   607    609      1
   607    614      1
   609    610      1
   609    611      1
   609    612      1
   612    613      1
   614    615      1
   615    616      1
   615    619      1
   615    638      1
   616    617      1
   616    618      1
   619    620      1
   619    621      1
   619    622      1
   622    623      1
   622    624      1
   622    626      1
   624    625      1
   626    627      1
   626    628      1
   626    636      1
   628    629      1
   628    630      1
   630    631      1
   630    635      1
   631    632      1
   631    633      1
   631    634      1
   636    637      1
   636    638      1
   636    639      1
   639    640      1
   639    641      1
   639    643      1
   641    642      1
   643    644      1
   643    645      1
   643    650      1
   645    646      1
   645    647      1
   645    648      1
   648    649      1
   650    651      1
   651    652      1
   651    655      1
   651    674      1
   652    653      1
   652    654      1
   655    656      1
   655    657      1
   655    658      1
   658    659      1
   658    660      1
   658    662      1
   660    661      1
   662    663      1
   662    664      1
   662    672      1
   664    665      1
   664    666      1
   666    667      1
   666    671      1
   667    668      1
   667    669      1
   667    670      1
   672    673      1
   672    674      1
   672    675      1
   675    676      1
   675    677      1
   675    679      1
   677    678      1
   679    680      1
   679    681      1
   679    686      1
   681    682      1
   681    683      1
   681    684      1
   684    685      1
   686    687      1
   687    688      1
   687    691      1
   687    713      1
   688    689      1
   688    690      1
   691    692      1
   691    693      1
   691    694      1
   694    695      1
   694    696      1
   694    722      1
   696    697      1
   696    698      1
   696    714      1
   698    699      1
   698    700      1
   698    713      1
   700    701      1
   700    702      1
   700    711      1
   702    703      1
   702    704      1
   702    709      1
   704    705      1
   704    706      1
   704    707      1
   707    708      1
   709    710      1
   711    712      1
   714    715      1
   714    716      1
   716    717      1
   716    721      1
   717    718      1
   717    719      1
   717    720      1
   722    723      1

[ pairs ]
;   ai     aj   funct   c0   c1
     1      4      1
     1      7      2   1.0000    0.4450    0.0060   1.87801e-01   2.39696e-01
     1     26      2   1.0000    0.4450   -0.4030   1.67818e-01   2.98797e-01
     2      5      1
     2      6      1
     2      8      2   1.0000   -0.6390    0.0000   2.85800e-01   2.40472e-01
     2      9      2   1.0000   -0.6390    0.0000   2.85800e-01   2.40472e-01
     2     10      2   1.0000   -0.6390    0.3320   3.23307e-01   6.34780e-01
     2     24      2   1.0000   -0.6390    0.2200   3.23307e-01   6.34780e-01
     3     11      1
     3     12      2   1.0000    0.2370   -0.7620   3.23307e-01   6.34780e-01
     3     14      2   1.0000    0.2370    0.3080   3.39967e-01   4.57730e-01
     3     25      1
     3     27      2   1.0000    0.2370    0.1110   3.39967e-01   4.57730e-01
     4      8      1
     4      9      1
     4     10      1
     4     24      1
     5      7      1
     5     26      1
     6      7      1
     6     26      1
     7     13      2   1.0000    0.0060    0.4150   1.87801e-01   2.39696e-01
     7     15      1
     7     16      2   1.0000    0.0060   -0.6290   3.32484e-01   5.70591e-01
     7     24      2   1.0000    0.0060    0.2200   3.39967e-01   4.57730e-01
     8     11      1
     8     12      2   1.0000    0.0000   -0.7620   2.85800e-01   2.40472e-01
     8     14      2   1.0000    0.0000    0.3080   3.02460e-01   1.73401e-01
     8     26      2   1.0000    0.0000   -0.4030   2.82477e-01   2.16155e-01
     9     11      1
     9     12      2   1.0000    0.0000   -0.7620   2.85800e-01   2.40472e-01
     9     14      2   1.0000    0.0000    0.3080   3.02460e-01   1.73401e-01
     9     26      2   1.0000    0.0000   -0.4030   2.82477e-01   2.16155e-01
    10     17      1
    10     18      1
    10     25      1
    10     26      2   1.0000    0.3320   -0.4030   3.19984e-01   5.70591e-01
    10     27      2   1.0000    0.3320    0.1110   3.39967e-01   4.57730e-01
    11     13      1
    11     15      1
    11     16      1
    11     24      1
    12     15      1
    12     16      2   1.0000   -0.7620   -0.6290   3.15824e-01   7.91296e-01
    12     24      2   1.0000   -0.7620    0.2200   3.23307e-01   6.34780e-01
    13     14      2   1.0000    0.4150    0.3080   1.87801e-01   2.39696e-01
    14     19      2   1.0000    0.3080   -0.0030   3.39967e-01   4.57730e-01
    14     23      1
    14     28      1
    14     29      2   1.0000    0.3080   -0.7210   3.23307e-01   6.34780e-01
    14     31      2   1.0000    0.3080    0.4920   3.39967e-01   4.57730e-01
    15     17      1
    15     18      1
    15     25      1
    15     26      1
    15     27      1
    16     20      2   1.0000   -0.6290    0.0000   2.94976e-01   2.16155e-01
    16     21      2   1.0000   -0.6290    0.0000   2.94976e-01   2.16155e-01
    16     22      2   1.0000   -0.6290    0.0000   2.94976e-01   2.16155e-01
    16     25      1
    16     26      2   1.0000   -0.6290   -0.4030   3.12501e-01   7.11280e-01
    16     27      2   1.0000   -0.6290    0.1110   3.32484e-01   5.70591e-01
    17     19      1
    17     23      1
    17     24      1
    18     24      1
    20     23      1
    21     23      1
    22     23      1
    24     30      2   1.0000    0.2200    0.4350   1.87801e-01   2.39696e-01
    24     32      1
    24     33      2   1.0000    0.2200    0.1780   3.39967e-01   4.57730e-01
    24     38      2   1.0000    0.2200   -0.5210   3.19984e-01   5.70591e-01
    25     28      1
    25     29      1
    25     31      1
    26     28      1
    26     29      2   1.0000   -0.4030   -0.7210   3.03324e-01   7.91296e-01
    26     31      2   1.0000   -0.4030    0.4920   3.19984e-01   5.70591e-01
    27     34      1
    27     35      1
    27     36      2   1.0000    0.1110   -0.6890   3.23307e-01   6.34780e-01
    27     39      2   1.0000    0.1110    0.2370   3.39967e-01   4.57730e-01
    28     30      1
    28     32      1
    28     33      1
    28     38      1
    29     32      1
    29     33      2   1.0000   -0.7210    0.1780   3.23307e-01   6.34780e-01
    29     38      2   1.0000   -0.7210   -0.5210   3.03324e-01   7.91296e-01
    30     31      2   1.0000    0.4350    0.4920   1.87801e-01   2.39696e-01
    31     37      2   1.0000    0.4920    0.4080   1.87801e-01   2.39696e-01
    31     40      1
    31     43      2   1.0000    0.4920    0.0060   3.39967e-01   4.57730e-01
    31     62      2   1.0000    0.4920   -0.4030   3.19984e-01   5.70591e-01
    32     34      1
    32     35      1
    32     36      1
    32     39      1
    33     39      2   1.0000    0.1780    0.2370   3.39967e-01   4.57730e-01
    34     37      1
    34     38      1
    35     37      1
    35     38      1
    36     38      2   1.0000   -0.6890   -0.5210   3.03324e-01   7.91296e-01
    38     41      1
    38     42      1
    38     44      2   1.0000   -0.5210    0.0000   2.82477e-01   2.16155e-01
    38     45      2   1.0000   -0.5210    0.0000   2.82477e-01   2.16155e-01
    38     46      2   1.0000   -0.5210    0.3320   3.19984e-01   5.70591e-01
    38     60      2   1.0000   -0.5210    0.2200   3.19984e-01   5.70591e-01
    39     47      1
    39     48      2   1.0000    0.2370   -0.7620   3.23307e-01   6.34780e-01
    39     50      2   1.0000    0.2370    0.3080   3.39967e-01   4.57730e-01
    39     61      1
    39     63      2   1.0000    0.2370    0.1110   3.39967e-01   4.57730e-01
    40     44      1
    40     45      1
    40     46      1
    40     60      1
    41     43      1
    41     62      1
    42     43      1
    42     62      1
    43     49      2   1.0000    0.0060    0.4150   1.87801e-01   2.39696e-01
    43     51      1
    43     52      2   1.0000    0.0060   -0.6290   3.32484e-01   5.70591e-01
    43     60      2   1.0000    0.0060    0.2200   3.39967e-01   4.57730e-01
    44     47      1
    44     48      2   1.0000    0.0000   -0.7620   2.85800e-01   2.40472e-01
    44     50      2   1.0000    0.0000    0.3080   3.02460e-01   1.73401e-01
    44     62      2   1.0000    0.0000   -0.4030   2.82477e-01   2.16155e-01
    45     47      1
    45     48      2   1.0000    0.0000   -0.7620   2.85800e-01   2.40472e-01
    45     50      2   1.0000    0.0000    0.3080   3.02460e-01   1.73401e-01
    45     62      2   1.0000    0.0000   -0.4030   2.82477e-01   2.16155e-01
    46     53      1
    46     54      1
    46     61      1
    46     62      2   1.0000    0.3320   -0.4030   3.19984e-01   5.70591e-01
    46     63      2   1.0000    0.3320    0.1110   3.39967e-01   4.57730e-01
    47     49      1
    47     51      1
    47     52      1
    47     60      1
    48     51      1
    48     52      2   1.0000   -0.7620   -0.6290   3.15824e-01   7.91296e-01
    48     60      2   1.0000   -0.7620    0.2200   3.23307e-01   6.34780e-01
    49     50      2   1.0000    0.4150    0.3080   1.87801e-01   2.39696e-01
    50     55      2   1.0000    0.3080   -0.0030   3.39967e-01   4.57730e-01
    50     59      1
    50     64      1
    50     65      2   1.0000    0.3080   -0.7210   3.23307e-01   6.34780e-01
    50     67      2   1.0000    0.3080    0.4920   3.39967e-01   4.57730e-01
    51     53      1
    51     54      1
    51     61      1
    51     62      1
    51     63      1
    52     56      2   1.0000   -0.6290    0.0000   2.94976e-01   2.16155e-01
    52     57      2   1.0000   -0.6290    0.0000   2.94976e-01   2.16155e-01
    52     58      2   1.0000   -0.6290    0.0000   2.94976e-01   2.16155e-01
    52     61      1
    52     62      2   1.0000   -0.6290   -0.4030   3.12501e-01   7.11280e-01
    52     63      2   1.0000   -0.6290    0.1110   3.32484e-01   5.70591e-01
    53     55      1
    53     59      1
    53     60      1
    54     60      1
    56     59      1
    57     59      1
    58     59      1
    60     66      2   1.0000    0.2200    0.4350   1.87801e-01   2.39696e-01
    60     68      1
    60     69      2   1.0000    0.2200    0.1780   3.39967e-01   4.57730e-01
    60     74      2   1.0000    0.2200   -0.5210   3.19984e-01   5.70591e-01
    61     64      1
    61     65      1
    61     67      1
    62     64      1
    62     65      2   1.0000   -0.4030   -0.7210   3.03324e-01   7.91296e-01
    62     67      2   1.0000   -0.4030    0.4920   3.19984e-01   5.70591e-01
    63     70      1
    63     71      1
    63     72      2   1.0000    0.1110   -0.6890   3.23307e-01   6.34780e-01
    63     75      2   1.0000    0.1110    0.2370   3.39967e-01   4.57730e-01
    64     66      1
    64     68      1
    64     69      1
    64     74      1
    65     68      1
    65     69      2   1.0000   -0.7210    0.1780   3.23307e-01   6.34780e-01
    65     74      2   1.0000   -0.7210   -0.5210   3.03324e-01   7.91296e-01
    66     67      2   1.0000    0.4350    0.4920   1.87801e-01   2.39696e-01
    67     73      2   1.0000    0.4920    0.4080   1.87801e-01   2.39696e-01
    67     76      1
    67     79      2   1.0000    0.4920    0.0060   3.39967e-01   4.57730e-01
    67     98      2   1.0000    0.4920   -0.4030   3.19984e-01   5.70591e-01
    68     70      1
    68     71      1
    68     72      1
    68     75      1
    69     75      2   1.0000    0.1780    0.2370   3.39967e-01   4.57730e-01
    70     73      1
    70     74      1
    71     73      1
    71     74      1
    72     74      2   1.0000   -0.6890   -0.5210   3.03324e-01   7.91296e-01
    74     77      1
    74     78      1
    74     80      2   1.0000   -0.5210    0.0000   2.82477e-01   2.16155e-01
    74     81      2   1.0000   -0.5210    0.0000   2.82477e-01   2.16155e-01
    74     82      2   1.0000   -0.5210    0.3320   3.19984e-01   5.70591e-01
    74     96      2   1.0000   -0.5210    0.2200   3.19984e-01   5.70591e-01
    75     83      1
    75     84      2   1.0000    0.2370   -0.7620   3.23307e-01   6.34780e-01
    75     86      2   1.0000    0.2370    0.3080   3.39967e-01   4.57730e-01
    75     97      1
    75     99      2   1.0000    0.2370    0.1110   3.39967e-01   4.57730e-01
    76     80      1
    76     81      1
    76     82      1
    76     96      1
    77     79      1
    77     98      1
    78     79      1
    78     98      1
    79     85      2   1.0000    0.0060    0.4150   1.87801e-01   2.39696e-01
    79     87      1
    79     88      2   1.0000    0.0060   -0.6290   3.32484e-01   5.70591e-01
    79     96      2   1.0000    0.0060    0.2200   3.39967e-01   4.57730e-01
    80     83      1
    80     84      2   1.0000    0.0000   -0.7620   2.85800e-01   2.40472e-01
    80     86      2   1.0000    0.0000    0.3080   3.02460e-01   1.73401e-01
    80     98      2   1.0000    0.0000   -0.4030   2.82477e-01   2.16155e-01
    81     83      1
    81     84      2   1.0000    0.0000   -0.7620   2.85800e-01   2.40472e-01
    81     86      2   1.0000    0.0000    0.3080   3.02460e-01   1.73401e-01
    81     98      2   1.0000    0.0000   -0.4030   2.82477e-01   2.16155e-01
    82     89      1
    82     90      1
    82     97      1
    82     98      2   1.0000    0.3320   -0.4030   3.19984e-01   5.70591e-01
    82     99      2   1.0000    0.3320    0.1110   3.39967e-01   4.57730e-01
    83     85      1
    83     87      1
    83     88      1
    83     96      1
    84     87      1
    84     88      2   1.0000   -0.7620   -0.6290   3.15824e-01   7.91296e-01
    84     96      2   1.0000   -0.7620    0.2200   3.23307e-01   6.34780e-01
    85     86      2   1.0000    0.4150    0.3080   1.87801e-01   2.39696e-01
    86     91      2   1.0000    0.3080   -0.0030   3.39967e-01   4.57730e-01
    86     95      1
    86    100      1
    86    101      2   1.0000    0.3080   -0.7210   3.23307e-01   6.34780e-01
    86    103      2   1.0000    0.3080    0.4920   3.39967e-01   4.57730e-01
    87     89      1
    87     90      1
    87     97      1
    87     98      1
    87     99      1
    88     92      2   1.0000   -0.6290    0.0000   2.94976e-01   2.16155e-01
    88     93      2   1.0000   -0.6290    0.0000   2.94976e-01   2.16155e-01
    88     94      2   1.0000   -0.6290    0.0000   2.94976e-01   2.16155e-01
    88     97      1
    88     98      2   1.0000   -0.6290   -0.4030   3.12501e-01   7.11280e-01
    88     99      2   1.0000   -0.6290    0.1110   3.32484e-01   5.70591e-01
    89     91      1
    89     95      1
    89     96      1
    90     96      1
    92     95      1
    93     95      1
    94     95      1
    96    102      2   1.0000    0.2200    0.4350   1.87801e-01   2.39696e-01
    96    104      1
    96    105      2   1.0000    0.2200    0.1780   3.39967e-01   4.57730e-01
    96    110      2   1.0000    0.2200   -0.5210   3.19984e-01   5.70591e-01
    97    100      1
    97    101      1
    97    103      1
    98    100      1
    98    101      2   1.0000   -0.4030   -0.7210   3.03324e-01   7.91296e-01
    98    103      2   1.0000   -0.4030    0.4920   3.19984e-01   5.70591e-01
    99    106      1
    99    107      1
    99    108      2   1.0000    0.1110   -0.6890   3.23307e-01   6.34780e-01
    99    111      2   1.0000    0.1110    0.2370   3.39967e-01   4.57730e-01
   100    102      1
   100    104      1
   100    105      1
   100    110      1
   101    104      1
   101    105      2   1.0000   -0.7210    0.1780   3.23307e-01   6.34780e-01
   101    110      2   1.0000   -0.7210   -0.5210   3.03324e-01   7.91296e-01
   102    103      2   1.0000    0.4350    0.4920   1.87801e-01   2.39696e-01
   103    109      2   1.0000    0.4920    0.4080   1.87801e-01   2.39696e-01
   103    112      1
   103    115      2   1.0000    0.4920    0.0060   3.39967e-01   4.57730e-01
   103    134      2   1.0000    0.4920   -0.4030   3.19984e-01   5.70591e-01
   104    106      1
   104    107      1
   104    108      1
   104    111      1
   105    111      2   1.0000    0.1780    0.2370   3.39967e-01   4.57730e-01
   106    109      1
   106    110      1
   107    109      1
   107    110      1
   108    110      2   1.0000   -0.6890   -0.5210   3.03324e-01   7.91296e-01
   110    113      1
   110    114      1
   110    116      2   1.0000   -0.5210    0.0000   2.82477e-01   2.16155e-01
   110    117      2   1.0000   -0.5210    0.0000   2.82477e-01   2.16155e-01
   110    118      2   1.0000   -0.5210    0.3320   3.19984e-01   5.70591e-01
   110    132      2   1.0000   -0.5210    0.2200   3.19984e-01   5.70591e-01
   111    119      1
   111    120      2   1.0000    0.2370   -0.7620   3.23307e-01   6.34780e-01
   111    122      2   1.0000    0.2370    0.3080   3.39967e-01   4.57730e-01
   111    133      1
   111    135      2   1.0000    0.2370    0.1110   3.39967e-01   4.57730e-01
   112    116      1
   112    117      1
   112    118      1
   112    132      1
   113    115      1
   113    134      1
   114    115      1
   114    134      1
   115    121      2   1.0000    0.0060    0.4150   1.87801e-01   2.39696e-01
   115    123      1
   115    124      2   1.0000    0.0060   -0.6290   3.32484e-01   5.70591e-01
   115    132      2   1.0000    0.0060    0.2200   3.39967e-01   4.57730e-01
   116    119      1
   116    120      2   1.0000    0.0000   -0.7620   2.85800e-01   2.40472e-01
   116    122      2   1.0000    0.0000    0.3080   3.02460e-01   1.73401e-01
   116    134      2   1.0000    0.0000   -0.4030   2.82477e-01   2.16155e-01
   117    119      1
   117    120      2   1.0000    0.0000   -0.7620   2.85800e-01   2.40472e-01
   117    122      2   1.0000    0.0000    0.3080   3.02460e-01   1.73401e-01
   117    134      2   1.0000    0.0000   -0.4030   2.82477e-01   2.16155e-01
   118    125      1
   118    126      1
   118    133      1
   118    134      2   1.0000    0.3320   -0.4030   3.19984e-01   5.70591e-01
   118    135      2   1.0000    0.3320    0.1110   3.39967e-01   4.57730e-01
   119    121      1
   119    123      1
   119    124      1
   119    132      1
   120    123      1
   120    124      2   1.0000   -0.7620   -0.6290   3.15824e-01   7.91296e-01
   120    132      2   1.0000   -0.7620    0.2200   3.23307e-01   6.34780e-01
   121    122      2   1.0000    0.4150    0.3080   1.87801e-01   2.39696e-01
   122    127      2   1.0000    0.3080   -0.0030   3.39967e-01   4.57730e-01
   122    131      1
   122    136      1
   122    137      2   1.0000    0.3080   -0.7210   3.23307e-01   6.34780e-01
   122    139      2   1.0000    0.3080    0.4920   3.39967e-01   4.57730e-01
   123    125      1
   123    126      1
   123    133      1
   123    134      1
   123    135      1
   124    128      2   1.0000   -0.6290    0.0000   2.94976e-01   2.16155e-01
   124    129      2   1.0000   -0.6290    0.0000   2.94976e-01   2.16155e-01
   124    130      2   1.0000   -0.6290    0.0000   2.94976e-01   2.16155e-01
   124    133      1
   124    134      2   1.0000   -0.6290   -0.4030   3.12501e-01   7.11280e-01
   124    135      2   1.0000   -0.6290    0.1110   3.32484e-01   5.70591e-01
   125    127      1
   125    131      1
   125    132      1
   126    132      1
   128    131      1
   129    131      1
   130    131      1
   132    138      2   1.0000    0.2200    0.4350   1.87801e-01   2.39696e-01
   132    140      1
   132    141      2   1.0000    0.2200    0.1780   3.39967e-01   4.57730e-01
   132    146      2   1.0000    0.2200   -0.5210   3.19984e-01   5.70591e-01
   133    136      1
   133    137      1
   133    139      1
   134    136      1
   134    137      2   1.0000   -0.4030   -0.7210   3.03324e-01   7.91296e-01
   134    139      2   1.0000   -0.4030    0.4920   3.19984e-01   5.70591e-01
   135    142      1
   135    143      1
   135    144      2   1.0000    0.1110   -0.6890   3.23307e-01   6.34780e-01
   135    147      2   1.0000    0.1110    0.2370   3.39967e-01   4.57730e-01
   136    138      1
   136    140      1
   136    141      1
   136    146      1
   137    140      1
   137    141      2   1.0000   -0.7210    0.1780   3.23307e-01   6.34780e-01
   137    146      2   1.0000   -0.7210   -0.5210   3.03324e-01   7.91296e-01
   138    139      2   1.0000    0.4350    0.4920   1.87801e-01   2.39696e-01
   139    145      2   1.0000    0.4920    0.4080   1.87801e-01   2.39696e-01
   139    148      1
   139    151      2   1.0000    0.4920    0.0060   3.39967e-01   4.57730e-01
   139    170      2   1.0000    0.4920   -0.4030   3.19984e-01   5.70591e-01
   140    142      1
   140    143      1
   140    144      1
   140    147      1
   141    147      2   1.0000    0.1780    0.2370   3.39967e-01   4.57730e-01
   142    145      1
   142    146      1
   143    145      1
   143    146      1
   144    146      2   1.0000   -0.6890   -0.5210   3.03324e-01   7.91296e-01
   146    149      1
   146    150      1
   146    152      2   1.0000   -0.5210    0.0000   2.82477e-01   2.16155e-01
   146    153      2   1.0000   -0.5210    0.0000   2.82477e-01   2.16155e-01
   146    154      2   1.0000   -0.5210    0.3320   3.19984e-01   5.70591e-01
   146    168      2   1.0000   -0.5210    0.2200   3.19984e-01   5.70591e-01
   147    155      1
   147    156      2   1.0000    0.2370   -0.7620   3.23307e-01   6.34780e-01
   147    158      2   1.0000    0.2370    0.3080   3.39967e-01   4.57730e-01
   147    169      1
   147    171      2   1.0000    0.2370    0.1110   3.39967e-01   4.57730e-01
   148    152      1
   148    153      1
   148    154      1
   148    168      1
   149    151      1
   149    170      1
   150    151      1
   150    170      1
   151    157      2   1.0000    0.0060    0.4150   1.87801e-01   2.39696e-01
   151    159      1
   151    160      2   1.0000    0.0060   -0.6290   3.32484e-01   5.70591e-01
   151    168      2   1.0000    0.0060    0.2200   3.39967e-01   4.57730e-01
   152    155      1
   152    156      2   1.0000    0.0000   -0.7620   2.85800e-01   2.40472e-01
   152    158      2   1.0000    0.0000    0.3080   3.02460e-01   1.73401e-01
   152    170      2   1.0000    0.0000   -0.4030   2.82477e-01   2.16155e-01
   153    155      1
   153    156      2   1.0000    0.0000   -0.7620   2.85800e-01   2.40472e-01
   153    158      2   1.0000    0.0000    0.3080   3.02460e-01   1.73401e-01
   153    170      2   1.0000    0.0000   -0.4030   2.82477e-01   2.16155e-01
   154    161      1
   154    162      1
   154    169      1
   154    170      2   1.0000    0.3320   -0.4030   3.19984e-01   5.70591e-01
   154    171      2   1.0000    0.3320    0.1110   3.39967e-01   4.57730e-01
   155    157      1
   155    159      1
   155    160      1
   155    168      1
   156    159      1
   156    160      2   1.0000   -0.7620   -0.6290   3.15824e-01   7.91296e-01
   156    168      2   1.0000   -0.7620    0.2200   3.23307e-01   6.34780e-01
   157    158      2   1.0000    0.4150    0.3080   1.87801e-01   2.39696e-01
   158    163      2   1.0000    0.3080   -0.0030   3.39967e-01   4.57730e-01
   158    167      1
   158    172      1
   158    173      2   1.0000    0.3080   -0.7210   3.23307e-01   6.34780e-01
   158    175      2   1.0000    0.3080    0.4920   3.39967e-01   4.57730e-01
   159    161      1
   159    162      1
   159    169      1
   159    170      1
   159    171      1
   160    164      2   1.0000   -0.6290    0.0000   2.94976e-01   2.16155e-01
   160    165      2   1.0000   -0.6290    0.0000   2.94976e-01   2.16155e-01
   160    166      2   1.0000   -0.6290    0.0000   2.94976e-01   2.16155e-01
   160    169      1
   160    170      2   1.0000   -0.6290   -0.4030   3.12501e-01   7.11280e-01
   160    171      2   1.0000   -0.6290    0.1110   3.32484e-01   5.70591e-01
   161    163      1
   161    167      1
   161    168      1
   162    168      1
   164    167      1
   165    167      1
   166    167      1
   168    174      2   1.0000    0.2200    0.4350   1.87801e-01   2.39696e-01
   168    176      1
   168    177      2   1.0000    0.2200    0.1780   3.39967e-01   4.57730e-01
   168    182      2   1.0000    0.2200   -0.5210   3.19984e-01   5.70591e-01
   169    172      1
   169    173      1
   169    175      1
   170    172      1
   170    173      2   1.0000   -0.4030   -0.7210   3.03324e-01   7.91296e-01
   170    175      2   1.0000   -0.4030    0.4920   3.19984e-01   5.70591e-01
   171    178      1
   171    179      1
   171    180      2   1.0000    0.1110   -0.6890   3.23307e-01   6.34780e-01
   171    183      2   1.0000    0.1110    0.2370   3.39967e-01   4.57730e-01
   172    174      1
   172    176      1
   172    177      1
   172    182      1
   173    176      1
   173    177      2   1.0000   -0.7210    0.1780   3.23307e-01   6.34780e-01
   173    182      2   1.0000   -0.7210   -0.5210   3.03324e-01   7.91296e-01
   174    175      2   1.0000    0.4350    0.4920   1.87801e-01   2.39696e-01
   175    181      2   1.0000    0.4920    0.4080   1.87801e-01   2.39696e-01
   175    184      1
   175    187      2   1.0000    0.4920    0.0060   3.39967e-01   4.57730e-01
   175    206      2   1.0000    0.4920   -0.4030   3.19984e-01   5.70591e-01
   176    178      1
   176    179      1
   176    180      1
   176    183      1
   177    183      2   1.0000    0.1780    0.2370   3.39967e-01   4.57730e-01
   178    181      1
   178    182      1
   179    181      1
   179    182      1
   180    182      2   1.0000   -0.6890   -0.5210   3.03324e-01   7.91296e-01
   182    185      1
   182    186      1
   182    188      2   1.0000   -0.5210    0.0000   2.82477e-01   2.16155e-01
   182    189      2   1.0000   -0.5210    0.0000   2.82477e-01   2.16155e-01
   182    190      2   1.0000   -0.5210    0.3320   3.19984e-01   5.70591e-01
   182    204      2   1.0000   -0.5210    0.2200   3.19984e-01   5.70591e-01
   183    191      1
   183    192      2   1.0000    0.2370   -0.7620   3.23307e-01   6.34780e-01
   183    194      2   1.0000    0.2370    0.3080   3.39967e-01   4.57730e-01
   183    205      1
   183    207      2   1.0000    0.2370    0.1110   3.39967e-01   4.57730e-01
   184    188      1
   184    189      1
   184    190      1
   184    204      1
   185    187      1
   185    206      1
   186    187      1
   186    206      1
   187    193      2   1.0000    0.0060    0.4150   1.87801e-01   2.39696e-01
   187    195      1
   187    196      2   1.0000    0.0060   -0.6290   3.32484e-01   5.70591e-01
   187    204      2   1.0000    0.0060    0.2200   3.39967e-01   4.57730e-01
   188    191      1
   188    192      2   1.0000    0.0000   -0.7620   2.85800e-01   2.40472e-01
   188    194      2   1.0000    0.0000    0.3080   3.02460e-01   1.73401e-01
   188    206      2   1.0000    0.0000   -0.4030   2.82477e-01   2.16155e-01
   189    191      1
   189    192      2   1.0000    0.0000   -0.7620   2.85800e-01   2.40472e-01
   189    194      2   1.0000    0.0000    0.3080   3.02460e-01   1.73401e-01
   189    206      2   1.0000    0.0000   -0.4030   2.82477e-01   2.16155e-01
   190    197      1
   190    198      1
   190    205      1
   190    206      2   1.0000    0.3320   -0.4030   3.19984e-01   5.70591e-01
   190    207      2   1.0000    0.3320    0.1110   3.39967e-01   4.57730e-01
   191    193      1
   191    195      1
   191    196      1
   191    204      1
   192    195      1
   192    196      2   1.0000   -0.7620   -0.6290   3.15824e-01   7.91296e-01
   192    204      2   1.0000   -0.7620    0.2200   3.23307e-01   6.34780e-01
   193    194      2   1.0000    0.4150    0.3080   1.87801e-01   2.39696e-01
   194    199      2   1.0000    0.3080   -0.0030   3.39967e-01   4.57730e-01
   194    203      1
   194    208      1
   194    209      2   1.0000    0.3080   -0.7210   3.23307e-01   6.34780e-01
   194    211      2   1.0000    0.3080    0.4920   3.39967e-01   4.57730e-01
   195    197      1
   195    198      1
   195    205      1
   195    206      1
   195    207      1
   196    200      2   1.0000   -0.6290    0.0000   2.94976e-01   2.16155e-01
   196    201      2   1.0000   -0.6290    0.0000   2.94976e-01   2.16155e-01
   196    202      2   1.0000   -0.6290    0.0000   2.94976e-01   2.16155e-01
   196    205      1
   196    206      2   1.0000   -0.6290   -0.4030   3.12501e-01   7.11280e-01
   196    207      2   1.0000   -0.6290    0.1110   3.32484e-01   5.70591e-01
   197    199      1
   197    203      1
   197    204      1
   198    204      1
   200    203      1
   201    203      1
   202    203      1
   204    210      2   1.0000    0.2200    0.4350   1.87801e-01   2.39696e-01
   204    212      1
   204    213      2   1.0000    0.2200    0.1780   3.39967e-01   4.57730e-01
   204    218      2   1.0000    0.2200   -0.5210   3.19984e-01   5.70591e-01
   205    208      1
   205    209      1
   205    211      1
   206    208      1
   206    209      2   1.0000   -0.4030   -0.7210   3.03324e-01   7.91296e-01
   206    211      2   1.0000   -0.4030    0.4920   3.19984e-01   5.70591e-01
   207    214      1
   207    215      1
   207    216      2   1.0000    0.1110   -0.6890   3.23307e-01   6.34780e-01
   207    219      2   1.0000    0.1110    0.2370   3.39967e-01   4.57730e-01
   208    210      1
   208    212      1
   208    213      1
   208    218      1
   209    212      1
   209    213      2   1.0000   -0.7210    0.1780   3.23307e-01   6.34780e-01
   209    218      2   1.0000   -0.7210   -0.5210   3.03324e-01   7.91296e-01
   210    211      2   1.0000    0.4350    0.4920   1.87801e-01   2.39696e-01
   211    217      2   1.0000    0.4920    0.4080   1.87801e-01   2.39696e-01
   211    220      1
   211    223      2   1.0000    0.4920    0.0060   3.39967e-01   4.57730e-01
   211    242      2   1.0000    0.4920   -0.4030   3.19984e-01   5.70591e-01
   212    214      1
   212    215      1
   212    216      1
   212    219      1
   213    219      2   1.0000    0.1780    0.2370   3.39967e-01   4.57730e-01
   214    217      1
   214    218      1
   215    217      1
   215    218      1
   216    218      2   1.0000   -0.6890   -0.5210   3.03324e-01   7.91296e-01
   218    221      1
   218    222      1
   218    224      2   1.0000   -0.5210    0.0000   2.82477e-01   2.16155e-01
   218    225      2   1.0000   -0.5210    0.0000   2.82477e-01   2.16155e-01
   218    226      2   1.0000   -0.5210    0.3320   3.19984e-01   5.70591e-01
   218    240      2   1.0000   -0.5210    0.2200   3.19984e-01   5.70591e-01
   219    227      1
   219    228      2   1.0000    0.2370   -0.7620   3.23307e-01   6.34780e-01
   219    230      2   1.0000    0.2370    0.3080   3.39967e-01   4.57730e-01
   219    241      1
   219    243      2   1.0000    0.2370    0.1110   3.39967e-01   4.57730e-01
   220    224      1
   220    225      1
   220    226      1
   220    240      1
   221    223      1
   221    242      1
   222    223      1
   222    242      1
   223    229      2   1.0000    0.0060    0.4150   1.87801e-01   2.39696e-01
   223    231      1
   223    232      2   1.0000    0.0060   -0.6290   3.32484e-01   5.70591e-01
   223    240      2   1.0000    0.0060    0.2200   3.39967e-01   4.57730e-01
   224    227      1
   224    228      2   1.0000    0.0000   -0.7620   2.85800e-01   2.40472e-01
   224    230      2   1.0000    0.0000    0.3080   3.02460e-01   1.73401e-01
   224    242      2   1.0000    0.0000   -0.4030   2.82477e-01   2.16155e-01
   225    227      1
   225    228      2   1.0000    0.0000   -0.7620   2.85800e-01   2.40472e-01
   225    230      2   1.0000    0.0000    0.3080   3.02460e-01   1.73401e-01
   225    242      2   1.0000    0.0000   -0.4030   2.82477e-01   2.16155e-01
   226    233      1
   226    234      1
   226    241      1
   226    242      2   1.0000    0.3320   -0.4030   3.19984e-01   5.70591e-01
   226    243      2   1.0000    0.3320    0.1110   3.39967e-01   4.57730e-01
   227    229      1
   227    231      1
   227    232      1
   227    240      1
   228    231      1
   228    232      2   1.0000   -0.7620   -0.6290   3.15824e-01   7.91296e-01
   228    240      2   1.0000   -0.7620    0.2200   3.23307e-01   6.34780e-01
   229    230      2   1.0000    0.4150    0.3080   1.87801e-01   2.39696e-01
   230    235      2   1.0000    0.3080   -0.0030   3.39967e-01   4.57730e-01
   230    239      1
   230    244      1
   230    245      2   1.0000    0.3080   -0.7210   3.23307e-01   6.34780e-01
   230    247      2   1.0000    0.3080    0.4920   3.39967e-01   4.57730e-01
   231    233      1
   231    234      1
   231    241      1
   231    242      1
   231    243      1
   232    236      2   1.0000   -0.6290    0.0000   2.94976e-01   2.16155e-01
   232    237      2   1.0000   -0.6290    0.0000   2.94976e-01   2.16155e-01
   232    238      2   1.0000   -0.6290    0.0000   2.94976e-01   2.16155e-01
   232    241      1
   232    242      2   1.0000   -0.6290   -0.4030   3.12501e-01   7.11280e-01
   232    243      2   1.0000   -0.6290    0.1110   3.32484e-01   5.70591e-01
   233    235      1
   233    239      1
   233    240      1
   234    240      1
   236    239      1
   237    239      1
   238    239      1
   240    246      2   1.0000    0.2200    0.4350   1.87801e-01   2.39696e-01
   240    248      1
   240    249      2   1.0000    0.2200    0.1780   3.39967e-01   4.57730e-01
   240    254      2   1.0000    0.2200   -0.5210   3.19984e-01   5.70591e-01
   241    244      1
   241    245      1
   241    247      1
   242    244      1
   242    245      2   1.0000   -0.4030   -0.7210   3.03324e-01   7.91296e-01
   242    247      2   1.0000   -0.4030    0.4920   3.19984e-01   5.70591e-01
   243    250      1
   243    251      1
   243    252      2   1.0000    0.1110   -0.6890   3.23307e-01   6.34780e-01
   243    255      2   1.0000    0.1110    0.2370   3.39967e-01   4.57730e-01
   244    246      1
   244    248      1
   244    249      1
   244    254      1
   245    248      1
   245    249      2   1.0000   -0.7210    0.1780   3.23307e-01   6.34780e-01
   245    254      2   1.0000   -0.7210   -0.5210   3.03324e-01   7.91296e-01
   246    247      2   1.0000    0.4350    0.4920   1.87801e-01   2.39696e-01
   247    253      2   1.0000    0.4920    0.4080   1.87801e-01   2.39696e-01
   247    256      1
   247    259      2   1.0000    0.4920    0.0060   3.39967e-01   4.57730e-01
   247    278      2   1.0000    0.4920   -0.4030   3.19984e-01   5.70591e-01
   248    250      1
   248    251      1
   248    252      1
   248    255      1
   249    255      2   1.0000    0.1780    0.2370   3.39967e-01   4.57730e-01
   250    253      1
   250    254      1
   251    253      1
   251    254      1
   252    254      2   1.0000   -0.6890   -0.5210   3.03324e-01   7.91296e-01
   254    257      1
   254    258      1
   254    260      2   1.0000   -0.5210    0.0000   2.82477e-01   2.16155e-01
   254    261      2   1.0000   -0.5210    0.0000   2.82477e-01   2.16155e-01
   254    262      2   1.0000   -0.5210    0.3320   3.19984e-01   5.70591e-01
   254    276      2   1.0000   -0.5210    0.2200   3.19984e-01   5.70591e-01
   255    263      1
   255    264      2   1.0000    0.2370   -0.7620   3.23307e-01   6.34780e-01
   255    266      2   1.0000    0.2370    0.3080   3.39967e-01   4.57730e-01
   255    277      1
   255    279      2   1.0000    0.2370    0.1110   3.39967e-01   4.57730e-01
   256    260      1
   256    261      1
   256    262      1
   256    276      1
   257    259      1
   257    278      1
   258    259      1
   258    278      1
   259    265      2   1.0000    0.0060    0.4150   1.87801e-01   2.39696e-01
   259    267      1
   259    268      2   1.0000    0.0060   -0.6290   3.32484e-01   5.70591e-01
   259    276      2   1.0000    0.0060    0.2200   3.39967e-01   4.57730e-01
   260    263      1
   260    264      2   1.0000    0.0000   -0.7620   2.85800e-01   2.40472e-01
   260    266      2   1.0000    0.0000    0.3080   3.02460e-01   1.73401e-01
   260    278      2   1.0000    0.0000   -0.4030   2.82477e-01   2.16155e-01
   261    263      1
   261    264      2   1.0000    0.0000   -0.7620   2.85800e-01   2.40472e-01
   261    266      2   1.0000    0.0000    0.3080   3.02460e-01   1.73401e-01
   261    278      2   1.0000    0.0000   -0.4030   2.82477e-01   2.16155e-01
   262    269      1
   262    270      1
   262    277      1
   262    278      2   1.0000    0.3320   -0.4030   3.19984e-01   5.70591e-01
   262    279      2   1.0000    0.3320    0.1110   3.39967e-01   4.57730e-01
   263    265      1
   263    267      1
   263    268      1
   263    276      1
   264    267      1
   264    268      2   1.0000   -0.7620   -0.6290   3.15824e-01   7.91296e-01
   264    276      2   1.0000   -0.7620    0.2200   3.23307e-01   6.34780e-01
   265    266      2   1.0000    0.4150    0.3080   1.87801e-01   2.39696e-01
   266    271      2   1.0000    0.3080   -0.0030   3.39967e-01   4.57730e-01
   266    275      1
   266    280      1
   266    281      2   1.0000    0.3080   -0.7210   3.23307e-01   6.34780e-01
   266    283      2   1.0000    0.3080    0.4920   3.39967e-01   4.57730e-01
   267    269      1
   267    270      1
   267    277      1
   267    278      1
   267    279      1
   268    272      2   1.0000   -0.6290    0.0000   2.94976e-01   2.16155e-01
   268    273      2   1.0000   -0.6290    0.0000   2.94976e-01   2.16155e-01
   268    274      2   1.0000   -0.6290    0.0000   2.94976e-01   2.16155e-01
   268    277      1
   268    278      2   1.0000   -0.6290   -0.4030   3.12501e-01   7.11280e-01
   268    279      2   1.0000   -0.6290    0.1110   3.32484e-01   5.70591e-01
   269    271      1
   269    275      1
   269    276      1
   270    276      1
   272    275      1
   273    275      1
   274    275      1
   276    282      2   1.0000    0.2200    0.4350   1.87801e-01   2.39696e-01
   276    284      1
   276    285      2   1.0000    0.2200    0.1780   3.39967e-01   4.57730e-01
   276    290      2   1.0000    0.2200   -0.5210   3.19984e-01   5.70591e-01
   277    280      1
   277    281      1
   277    283      1
   278    280      1
   278    281      2   1.0000   -0.4030   -0.7210   3.03324e-01   7.91296e-01
   278    283      2   1.0000   -0.4030    0.4920   3.19984e-01   5.70591e-01
   279    286      1
   279    287      1
   279    288      2   1.0000    0.1110   -0.6890   3.23307e-01   6.34780e-01
   279    291      2   1.0000    0.1110    0.2370   3.39967e-01   4.57730e-01
   280    282      1
   280    284      1
   280    285      1
   280    290      1
   281    284      1
   281    285      2   1.0000   -0.7210    0.1780   3.23307e-01   6.34780e-01
   281    290      2   1.0000   -0.7210   -0.5210   3.03324e-01   7.91296e-01
   282    283      2   1.0000    0.4350    0.4920   1.87801e-01   2.39696e-01
   283    289      2   1.0000    0.4920    0.4080   1.87801e-01   2.39696e-01
   283    292      1
   283    295      2   1.0000    0.4920    0.0060   3.39967e-01   4.57730e-01
   283    314      2   1.0000    0.4920   -0.4030   3.19984e-01   5.70591e-01
   284    286      1
   284    287      1
   284    288      1
   284    291      1
   285    291      2   1.0000    0.1780    0.2370   3.39967e-01   4.57730e-01
   286    289      1
   286    290      1
   287    289      1
   287    290      1
   288    290      2   1.0000   -0.6890   -0.5210   3.03324e-01   7.91296e-01
   290    293      1
   290    294      1
   290    296      2   1.0000   -0.5210    0.0000   2.82477e-01   2.16155e-01
   290    297      2   1.0000   -0.5210    0.0000   2.82477e-01   2.16155e-01
   290    298      2   1.0000   -0.5210    0.3320   3.19984e-01   5.70591e-01
   290    312      2   1.0000   -0.5210    0.2200   3.19984e-01   5.70591e-01
   291    299      1
   291    300      2   1.0000    0.2370   -0.7620   3.23307e-01   6.34780e-01
   291    302      2   1.0000    0.2370    0.3080   3.39967e-01   4.57730e-01
   291    313      1
   291    315      2   1.0000    0.2370    0.1110   3.39967e-01   4.57730e-01
   292    296      1
   292    297      1
   292    298      1
   292    312      1
   293    295      1
   293    314      1
   294    295      1
   294    314      1
   295    301      2   1.0000    0.0060    0.4150   1.87801e-01   2.39696e-01
   295    303      1
   295    304      2   1.0000    0.0060   -0.6290   3.32484e-01   5.70591e-01
   295    312      2   1.0000    0.0060    0.2200   3.39967e-01   4.57730e-01
   296    299      1
   296    300      2   1.0000    0.0000   -0.7620   2.85800e-01   2.40472e-01
   296    302      2   1.0000    0.0000    0.3080   3.02460e-01   1.73401e-01
   296    314      2   1.0000    0.0000   -0.4030   2.82477e-01   2.16155e-01
   297    299      1
   297    300      2   1.0000    0.0000   -0.7620   2.85800e-01   2.40472e-01
   297    302      2   1.0000    0.0000    0.3080   3.02460e-01   1.73401e-01
   297    314      2   1.0000    0.0000   -0.4030   2.82477e-01   2.16155e-01
   298    305      1
   298    306      1
   298    313      1
   298    314      2   1.0000    0.3320   -0.4030   3.19984e-01   5.70591e-01
   298    315      2   1.0000    0.3320    0.1110   3.39967e-01   4.57730e-01
   299    301      1
   299    303      1
   299    304      1
   299    312      1
   300    303      1
   300    304      2   1.0000   -0.7620   -0.6290   3.15824e-01   7.91296e-01
   300    312      2   1.0000   -0.7620    0.2200   3.23307e-01   6.34780e-01
   301    302      2   1.0000    0.4150    0.3080   1.87801e-01   2.39696e-01
   302    307      2   1.0000    0.3080   -0.0030   3.39967e-01   4.57730e-01
   302    311      1
   302    316      1
   302    317      2   1.0000    0.3080   -0.7210   3.23307e-01   6.34780e-01
   302    319      2   1.0000    0.3080    0.4920   3.39967e-01   4.57730e-01
   303    305      1
   303    306      1
   303    313      1
   303    314      1
   303    315      1
   304    308      2   1.0000   -0.6290    0.0000   2.94976e-01   2.16155e-01
   304    309      2   1.0000   -0.6290    0.0000   2.94976e-01   2.16155e-01
   304    310      2   1.0000   -0.6290    0.0000   2.94976e-01   2.16155e-01
   304    313      1
   304    314      2   1.0000   -0.6290   -0.4030   3.12501e-01   7.11280e-01
   304    315      2   1.0000   -0.6290    0.1110   3.32484e-01   5.70591e-01
   305    307      1
   305    311      1
   305    312      1
   306    312      1
   308    311      1
   309    311      1
   310    311      1
   312    318      2   1.0000    0.2200    0.4350   1.87801e-01   2.39696e-01
   312    320      1
   312    321      2   1.0000    0.2200    0.1780   3.39967e-01   4.57730e-01
   312    326      2   1.0000    0.2200   -0.5210   3.19984e-01   5.70591e-01
   313    316      1
   313    317      1
   313    319      1
   314    316      1
   314    317      2   1.0000   -0.4030   -0.7210   3.03324e-01   7.91296e-01
   314    319      2   1.0000   -0.4030    0.4920   3.19984e-01   5.70591e-01
   315    322      1
   315    323      1
   315    324      2   1.0000    0.1110   -0.6890   3.23307e-01   6.34780e-01
   315    327      2   1.0000    0.1110    0.2370   3.39967e-01   4.57730e-01
   316    318      1
   316    320      1
   316    321      1
   316    326      1
   317    320      1
   317    321      2   1.0000   -0.7210    0.1780   3.23307e-01   6.34780e-01
   317    326      2   1.0000   -0.7210   -0.5210   3.03324e-01   7.91296e-01
   318    319      2   1.0000    0.4350    0.4920   1.87801e-01   2.39696e-01
   319    325      2   1.0000    0.4920    0.4080   1.87801e-01   2.39696e-01
   319    328      1
   319    331      2   1.0000    0.4920    0.0060   3.39967e-01   4.57730e-01
   319    350      2   1.0000    0.4920   -0.4030   3.19984e-01   5.70591e-01
   320    322      1
   320    323      1
   320    324      1
   320    327      1
   321    327      2   1.0000    0.1780    0.2370   3.39967e-01   4.57730e-01
   322    325      1
   322    326      1
   323    325      1
   323    326      1
   324    326      2   1.0000   -0.6890   -0.5210   3.03324e-01   7.91296e-01
   326    329      1
   326    330      1
   326    332      2   1.0000   -0.5210    0.0000   2.82477e-01   2.16155e-01
   326    333      2   1.0000   -0.5210    0.0000   2.82477e-01   2.16155e-01
   326    334      2   1.0000   -0.5210    0.3320   3.19984e-01   5.70591e-01
   326    348      2   1.0000   -0.5210    0.2200   3.19984e-01   5.70591e-01
   327    335      1
   327    336      2   1.0000    0.2370   -0.7620   3.23307e-01   6.34780e-01
   327    338      2   1.0000    0.2370    0.3080   3.39967e-01   4.57730e-01
   327    349      1
   327    351      2   1.0000    0.2370    0.1110   3.39967e-01   4.57730e-01
   328    332      1
   328    333      1
   328    334      1
   328    348      1
   329    331      1
   329    350      1
   330    331      1
   330    350      1
   331    337      2   1.0000    0.0060    0.4150   1.87801e-01   2.39696e-01
   331    339      1
   331    340      2   1.0000    0.0060   -0.6290   3.32484e-01   5.70591e-01
   331    348      2   1.0000    0.0060    0.2200   3.39967e-01   4.57730e-01
   332    335      1
   332    336      2   1.0000    0.0000   -0.7620   2.85800e-01   2.40472e-01
   332    338      2   1.0000    0.0000    0.3080   3.02460e-01   1.73401e-01
   332    350      2   1.0000    0.0000   -0.4030   2.82477e-01   2.16155e-01
   333    335      1
   333    336      2   1.0000    0.0000   -0.7620   2.85800e-01   2.40472e-01
   333    338      2   1.0000    0.0000    0.3080   3.02460e-01   1.73401e-01
   333    350      2   1.0000    0.0000   -0.4030   2.82477e-01   2.16155e-01
   334    341      1
   334    342      1
   334    349      1
   334    350      2   1.0000    0.3320   -0.4030   3.19984e-01   5.70591e-01
   334    351      2   1.0000    0.3320    0.1110   3.39967e-01   4.57730e-01
   335    337      1
   335    339      1
   335    340      1
   335    348      1
   336    339      1
   336    340      2   1.0000   -0.7620   -0.6290   3.15824e-01   7.91296e-01
   336    348      2   1.0000   -0.7620    0.2200   3.23307e-01   6.34780e-01
   337    338      2   1.0000    0.4150    0.3080   1.87801e-01   2.39696e-01
   338    343      2   1.0000    0.3080   -0.0030   3.39967e-01   4.57730e-01
   338    347      1
   338    352      1
   338    353      2   1.0000    0.3080   -0.7210   3.23307e-01   6.34780e-01
   338    355      2   1.0000    0.3080    0.4920   3.39967e-01   4.57730e-01
   339    341      1
   339    342      1
   339    349      1
   339    350      1
   339    351      1
   340    344      2   1.0000   -0.6290    0.0000   2.94976e-01   2.16155e-01
   340    345      2   1.0000   -0.6290    0.0000   2.94976e-01   2.16155e-01
   340    346      2   1.0000   -0.6290    0.0000   2.94976e-01   2.16155e-01
   340    349      1
   340    350      2   1.0000   -0.6290   -0.4030   3.12501e-01   7.11280e-01
   340    351      2   1.0000   -0.6290    0.1110   3.32484e-01   5.70591e-01
   341    343      1
   341    347      1
   341    348      1
   342    348      1
   344    347      1
   345    347      1
   346    347      1
   348    354      2   1.0000    0.2200    0.4350   1.87801e-01   2.39696e-01
   348    356      1
   348    357      2   1.0000    0.2200    0.1780   3.39967e-01   4.57730e-01
   348    362      2   1.0000    0.2200   -0.5210   3.19984e-01   5.70591e-01
   349    352      1
   349    353      1
   349    355      1
   350    352      1
   350    353      2   1.0000   -0.4030   -0.7210   3.03324e-01   7.91296e-01
   350    355      2   1.0000   -0.4030    0.4920   3.19984e-01   5.70591e-01
   351    358      1
   351    359      1
   351    360      2   1.0000    0.1110   -0.6890   3.23307e-01   6.34780e-01
   351    363      2   1.0000    0.1110    0.2370   3.39967e-01   4.57730e-01
   352    354      1
   352    356      1
   352    357      1
   352    362      1
   353    356      1
   353    357      2   1.0000   -0.7210    0.1780   3.23307e-01   6.34780e-01
   353    362      2   1.0000   -0.7210   -0.5210   3.03324e-01   7.91296e-01
   354    355      2   1.0000    0.4350    0.4920   1.87801e-01   2.39696e-01
   355    361      2   1.0000    0.4920    0.4080   1.87801e-01   2.39696e-01
   355    364      1
   355    367      2   1.0000    0.4920    0.0060   3.39967e-01   4.57730e-01
   355    386      2   1.0000    0.4920   -0.4030   3.19984e-01   5.70591e-01
   356    358      1
   356    359      1
   356    360      1
   356    363      1
   357    363      2   1.0000    0.1780    0.2370   3.39967e-01   4.57730e-01
   358    361      1
   358    362      1
   359    361      1
   359    362      1
   360    362      2   1.0000   -0.6890   -0.5210   3.03324e-01   7.91296e-01
   362    365      1
   362    366      1
   362    368      2   1.0000   -0.5210    0.0000   2.82477e-01   2.16155e-01
   362    369      2   1.0000   -0.5210    0.0000   2.82477e-01   2.16155e-01
   362    370      2   1.0000   -0.5210    0.3320   3.19984e-01   5.70591e-01
   362    384      2   1.0000   -0.5210    0.2200   3.19984e-01   5.70591e-01
   363    371      1
   363    372      2   1.0000    0.2370   -0.7620   3.23307e-01   6.34780e-01
   363    374      2   1.0000    0.2370    0.3080   3.39967e-01   4.57730e-01
   363    385      1
   363    387      2   1.0000    0.2370    0.1110   3.39967e-01   4.57730e-01
   364    368      1
   364    369      1
   364    370      1
   364    384      1
   365    367      1
   365    386      1
   366    367      1
   366    386      1
   367    373      2   1.0000    0.0060    0.4150   1.87801e-01   2.39696e-01
   367    375      1
   367    376      2   1.0000    0.0060   -0.6290   3.32484e-01   5.70591e-01
   367    384      2   1.0000    0.0060    0.2200   3.39967e-01   4.57730e-01
   368    371      1
   368    372      2   1.0000    0.0000   -0.7620   2.85800e-01   2.40472e-01
   368    374      2   1.0000    0.0000    0.3080   3.02460e-01   1.73401e-01
   368    386      2   1.0000    0.0000   -0.4030   2.82477e-01   2.16155e-01
   369    371      1
   369    372      2   1.0000    0.0000   -0.7620   2.85800e-01   2.40472e-01
   369    374      2   1.0000    0.0000    0.3080   3.02460e-01   1.73401e-01
   369    386      2   1.0000    0.0000   -0.4030   2.82477e-01   2.16155e-01
   370    377      1
   370    378      1
   370    385      1
   370    386      2   1.0000    0.3320   -0.4030   3.19984e-01   5.70591e-01
   370    387      2   1.0000    0.3320    0.1110   3.39967e-01   4.57730e-01
   371    373      1
   371    375      1
   371    376      1
   371    384      1
   372    375      1
   372    376      2   1.0000   -0.7620   -0.6290   3.15824e-01   7.91296e-01
   372    384      2   1.0000   -0.7620    0.2200   3.23307e-01   6.34780e-01
   373    374      2   1.0000    0.4150    0.3080   1.87801e-01   2.39696e-01
   374    379      2   1.0000    0.3080   -0.0030   3.39967e-01   4.57730e-01
   374    383      1
   374    388      1
   374    389      2   1.0000    0.3080   -0.7210   3.23307e-01   6.34780e-01
   374    391      2   1.0000    0.3080    0.4920   3.39967e-01   4.57730e-01
   375    377      1
   375    378      1
   375    385      1
   375    386      1
   375    387      1
   376    380      2   1.0000   -0.6290    0.0000   2.94976e-01   2.16155e-01
   376    381      2   1.0000   -0.6290    0.0000   2.94976e-01   2.16155e-01
   376    382      2   1.0000   -0.6290    0.0000   2.94976e-01   2.16155e-01
   376    385      1
   376    386      2   1.0000   -0.6290   -0.4030   3.12501e-01   7.11280e-01
   376    387      2   1.0000   -0.6290    0.1110   3.32484e-01   5.70591e-01
   377    379      1
   377    383      1
   377    384      1
   378    384      1
   380    383      1
   381    383      1
   382    383      1
   384    390      2   1.0000    0.2200    0.4350   1.87801e-01   2.39696e-01
   384    392      1
   384    393      2   1.0000    0.2200    0.1780   3.39967e-01   4.57730e-01
   384    398      2   1.0000    0.2200   -0.5210   3.19984e-01   5.70591e-01
   385    388      1
   385    389      1
   385    391      1
   386    388      1
   386    389      2   1.0000   -0.4030   -0.7210   3.03324e-01   7.91296e-01
   386    391      2   1.0000   -0.4030    0.4920   3.19984e-01   5.70591e-01
   387    394      1
   387    395      1
   387    396      2   1.0000    0.1110   -0.6890   3.23307e-01   6.34780e-01
   387    399      2   1.0000    0.1110    0.2370   3.39967e-01   4.57730e-01
   388    390      1
   388    392      1
   388    393      1
   388    398      1
   389    392      1
   389    393      2   1.0000   -0.7210    0.1780   3.23307e-01   6.34780e-01
   389    398      2   1.0000   -0.7210   -0.5210   3.03324e-01   7.91296e-01
   390    391      2   1.0000    0.4350    0.4920   1.87801e-01   2.39696e-01
   391    397      2   1.0000    0.4920    0.4080   1.87801e-01   2.39696e-01
   391    400      1
   391    403      2   1.0000    0.4920    0.0060   3.39967e-01   4.57730e-01
   391    422      2   1.0000    0.4920   -0.4030   3.19984e-01   5.70591e-01
   392    394      1
   392    395      1
   392    396      1
   392    399      1
   393    399      2   1.0000    0.1780    0.2370   3.39967e-01   4.57730e-01
   394    397      1
   394    398      1
   395    397      1
   395    398      1
   396    398      2   1.0000   -0.6890   -0.5210   3.03324e-01   7.91296e-01
   398    401      1
   398    402      1
   398    404      2   1.0000   -0.5210    0.0000   2.82477e-01   2.16155e-01
   398    405      2   1.0000   -0.5210    0.0000   2.82477e-01   2.16155e-01
   398    406      2   1.0000   -0.5210    0.3320   3.19984e-01   5.70591e-01
   398    420      2   1.0000   -0.5210    0.2200   3.19984e-01   5.70591e-01
   399    407      1
   399    408      2   1.0000    0.2370   -0.7620   3.23307e-01   6.34780e-01
   399    410      2   1.0000    0.2370    0.3080   3.39967e-01   4.57730e-01
   399    421      1
   399    423      2   1.0000    0.2370    0.1110   3.39967e-01   4.57730e-01
   400    404      1
   400    405      1
   400    406      1
   400    420      1
   401    403      1
   401    422      1
   402    403      1
   402    422      1
   403    409      2   1.0000    0.0060    0.4150   1.87801e-01   2.39696e-01
   403    411      1
   403    412      2   1.0000    0.0060   -0.6290   3.32484e-01   5.70591e-01
   403    420      2   1.0000    0.0060    0.2200   3.39967e-01   4.57730e-01
   404    407      1
   404    408      2   1.0000    0.0000   -0.7620   2.85800e-01   2.40472e-01
   404    410      2   1.0000    0.0000    0.3080   3.02460e-01   1.73401e-01
   404    422      2   1.0000    0.0000   -0.4030   2.82477e-01   2.16155e-01
   405    407      1
   405    408      2   1.0000    0.0000   -0.7620   2.85800e-01   2.40472e-01
   405    410      2   1.0000    0.0000    0.3080   3.02460e-01   1.73401e-01
   405    422      2   1.0000    0.0000   -0.4030   2.82477e-01   2.16155e-01
   406    413      1
   406    414      1
   406    421      1
   406    422      2   1.0000    0.3320   -0.4030   3.19984e-01   5.70591e-01
   406    423      2   1.0000    0.3320    0.1110   3.39967e-01   4.57730e-01
   407    409      1
   407    411      1
   407    412      1
   407    420      1
   408    411      1
   408    412      2   1.0000   -0.7620   -0.6290   3.15824e-01   7.91296e-01
   408    420      2   1.0000   -0.7620    0.2200   3.23307e-01   6.34780e-01
   409    410      2   1.0000    0.4150    0.3080   1.87801e-01   2.39696e-01
   410    415      2   1.0000    0.3080   -0.0030   3.39967e-01   4.57730e-01
   410    419      1
   410    424      1
   410    425      2   1.0000    0.3080   -0.7210   3.23307e-01   6.34780e-01
   410    427      2   1.0000    0.3080    0.4920   3.39967e-01   4.57730e-01
   411    413      1
   411    414      1
   411    421      1
   411    422      1
   411    423      1
   412    416      2   1.0000   -0.6290    0.0000   2.94976e-01   2.16155e-01
   412    417      2   1.0000   -0.6290    0.0000   2.94976e-01   2.16155e-01
   412    418      2   1.0000   -0.6290    0.0000   2.94976e-01   2.16155e-01
   412    421      1
   412    422      2   1.0000   -0.6290   -0.4030   3.12501e-01   7.11280e-01
   412    423      2   1.0000   -0.6290    0.1110   3.32484e-01   5.70591e-01
   413    415      1
   413    419      1
   413    420      1
   414    420      1
   416    419      1
   417    419      1
   418    419      1
   420    426      2   1.0000    0.2200    0.4350   1.87801e-01   2.39696e-01
   420    428      1
   420    429      2   1.0000    0.2200    0.1780   3.39967e-01   4.57730e-01
   420    434      2   1.0000    0.2200   -0.5210   3.19984e-01   5.70591e-01
   421    424      1
   421    425      1
   421    427      1
   422    424      1
   422    425      2   1.0000   -0.4030   -0.7210   3.03324e-01   7.91296e-01
   422    427      2   1.0000   -0.4030    0.4920   3.19984e-01   5.70591e-01
   423    430      1
   423    431      1
   423    432      2   1.0000    0.1110   -0.6890   3.23307e-01   6.34780e-01
   423    435      2   1.0000    0.1110    0.2370   3.39967e-01   4.57730e-01
   424    426      1
   424    428      1
   424    429      1
   424    434      1
   425    428      1
   425    429      2   1.0000   -0.7210    0.1780   3.23307e-01   6.34780e-01
   425    434      2   1.0000   -0.7210   -0.5210   3.03324e-01   7.91296e-01
   426    427      2   1.0000    0.4350    0.4920   1.87801e-01   2.39696e-01
   427    433      2   1.0000    0.4920    0.4080   1.87801e-01   2.39696e-01
   427    436      1
   427    439      2   1.0000    0.4920    0.0060   3.39967e-01   4.57730e-01
   427    458      2   1.0000    0.4920   -0.4030   3.19984e-01   5.70591e-01
   428    430      1
   428    431      1
   428    432      1
   428    435      1
   429    435      2   1.0000    0.1780    0.2370   3.39967e-01   4.57730e-01
   430    433      1
   430    434      1
   431    433      1
   431    434      1
   432    434      2   1.0000   -0.6890   -0.5210   3.03324e-01   7.91296e-01
   434    437      1
   434    438      1
   434    440      2   1.0000   -0.5210    0.0000   2.82477e-01   2.16155e-01
   434    441      2   1.0000   -0.5210    0.0000   2.82477e-01   2.16155e-01
   434    442      2   1.0000   -0.5210    0.3320   3.19984e-01   5.70591e-01
   434    456      2   1.0000   -0.5210    0.2200   3.19984e-01   5.70591e-01
   435    443      1
   435    444      2   1.0000    0.2370   -0.7620   3.23307e-01   6.34780e-01
   435    446      2   1.0000    0.2370    0.3080   3.39967e-01   4.57730e-01
   435    457      1
   435    459      2   1.0000    0.2370    0.1110   3.39967e-01   4.57730e-01
   436    440      1
   436    441      1
   436    442      1
   436    456      1
   437    439      1
   437    458      1
   438    439      1
   438    458      1
   439    445      2   1.0000    0.0060    0.4150   1.87801e-01   2.39696e-01
   439    447      1
   439    448      2   1.0000    0.0060   -0.6290   3.32484e-01   5.70591e-01
   439    456      2   1.0000    0.0060    0.2200   3.39967e-01   4.57730e-01
   440    443      1
   440    444      2   1.0000    0.0000   -0.7620   2.85800e-01   2.40472e-01
   440    446      2   1.0000    0.0000    0.3080   3.02460e-01   1.73401e-01
   440    458      2   1.0000    0.0000   -0.4030   2.82477e-01   2.16155e-01
   441    443      1
   441    444      2   1.0000    0.0000   -0.7620   2.85800e-01   2.40472e-01
   441    446      2   1.0000    0.0000    0.3080   3.02460e-01   1.73401e-01
   441    458      2   1.0000    0.0000   -0.4030   2.82477e-01   2.16155e-01
   442    449      1
   442    450      1
   442    457      1
   442    458      2   1.0000    0.3320   -0.4030   3.19984e-01   5.70591e-01
   442    459      2   1.0000    0.3320    0.1110   3.39967e-01   4.57730e-01
   443    445      1
   443    447      1
   443    448      1
   443    456      1
   444    447      1
   444    448      2   1.0000   -0.7620   -0.6290   3.15824e-01   7.91296e-01
   444    456      2   1.0000   -0.7620    0.2200   3.23307e-01   6.34780e-01
   445    446      2   1.0000    0.4150    0.3080   1.87801e-01   2.39696e-01
   446    451      2   1.0000    0.3080   -0.0030   3.39967e-01   4.57730e-01
   446    455      1
   446    460      1
   446    461      2   1.0000    0.3080   -0.7210   3.23307e-01   6.34780e-01
   446    463      2   1.0000    0.3080    0.4920   3.39967e-01   4.57730e-01
   447    449      1
   447    450      1
   447    457      1
   447    458      1
   447    459      1
   448    452      2   1.0000   -0.6290    0.0000   2.94976e-01   2.16155e-01
   448    453      2   1.0000   -0.6290    0.0000   2.94976e-01   2.16155e-01
   448    454      2   1.0000   -0.6290    0.0000   2.94976e-01   2.16155e-01
   448    457      1
   448    458      2   1.0000   -0.6290   -0.4030   3.12501e-01   7.11280e-01
   448    459      2   1.0000   -0.6290    0.1110   3.32484e-01   5.70591e-01
   449    451      1
   449    455      1
   449    456      1
   450    456      1
   452    455      1
   453    455      1
   454    455      1
   456    462      2   1.0000    0.2200    0.4350   1.87801e-01   2.39696e-01
   456    464      1
   456    465      2   1.0000    0.2200    0.1780   3.39967e-01   4.57730e-01
   456    470      2   1.0000    0.2200   -0.5210   3.19984e-01   5.70591e-01
   457    460      1
   457    461      1
   457    463      1
   458    460      1
   458    461      2   1.0000   -0.4030   -0.7210   3.03324e-01   7.91296e-01
   458    463      2   1.0000   -0.4030    0.4920   3.19984e-01   5.70591e-01
   459    466      1
   459    467      1
   459    468      2   1.0000    0.1110   -0.6890   3.23307e-01   6.34780e-01
   459    471      2   1.0000    0.1110    0.2370   3.39967e-01   4.57730e-01
   460    462      1
   460    464      1
   460    465      1
   460    470      1
   461    464      1
   461    465      2   1.0000   -0.7210    0.1780   3.23307e-01   6.34780e-01
   461    470      2   1.0000   -0.7210   -0.5210   3.03324e-01   7.91296e-01
   462    463      2   1.0000    0.4350    0.4920   1.87801e-01   2.39696e-01
   463    469      2   1.0000    0.4920    0.4080   1.87801e-01   2.39696e-01
   463    472      1
   463    475      2   1.0000    0.4920    0.0060   3.39967e-01   4.57730e-01
   463    494      2   1.0000    0.4920   -0.4030   3.19984e-01   5.70591e-01
   464    466      1
   464    467      1
   464    468      1
   464    471      1
   465    471      2   1.0000    0.1780    0.2370   3.39967e-01   4.57730e-01
   466    469      1
   466    470      1
   467    469      1
   467    470      1
   468    470      2   1.0000   -0.6890   -0.5210   3.03324e-01   7.91296e-01
   470    473      1
   470    474      1
   470    476      2   1.0000   -0.5210    0.0000   2.82477e-01   2.16155e-01
   470    477      2   1.0000   -0.5210    0.0000   2.82477e-01   2.16155e-01
   470    478      2   1.0000   -0.5210    0.3320   3.19984e-01   5.70591e-01
   470    492      2   1.0000   -0.5210    0.2200   3.19984e-01   5.70591e-01
   471    479      1
   471    480      2   1.0000    0.2370   -0.7620   3.23307e-01   6.34780e-01
   471    482      2   1.0000    0.2370    0.3080   3.39967e-01   4.57730e-01
   471    493      1
   471    495      2   1.0000    0.2370    0.1110   3.39967e-01   4.57730e-01
   472    476      1
   472    477      1
   472    478      1
   472    492      1
   473    475      1
   473    494      1
   474    475      1
   474    494      1
   475    481      2   1.0000    0.0060    0.4150   1.87801e-01   2.39696e-01
   475    483      1
   475    484      2   1.0000    0.0060   -0.6290   3.32484e-01   5.70591e-01
   475    492      2   1.0000    0.0060    0.2200   3.39967e-01   4.57730e-01
   476    479      1
   476    480      2   1.0000    0.0000   -0.7620   2.85800e-01   2.40472e-01
   476    482      2   1.0000    0.0000    0.3080   3.02460e-01   1.73401e-01
   476    494      2   1.0000    0.0000   -0.4030   2.82477e-01   2.16155e-01
   477    479      1
   477    480      2   1.0000    0.0000   -0.7620   2.85800e-01   2.40472e-01
   477    482      2   1.0000    0.0000    0.3080   3.02460e-01   1.73401e-01
   477    494      2   1.0000    0.0000   -0.4030   2.82477e-01   2.16155e-01
   478    485      1
   478    486      1
   478    493      1
   478    494      2   1.0000    0.3320   -0.4030   3.19984e-01   5.70591e-01
   478    495      2   1.0000    0.3320    0.1110   3.39967e-01   4.57730e-01
   479    481      1
   479    483      1
   479    484      1
   479    492      1
   480    483      1
   480    484      2   1.0000   -0.7620   -0.6290   3.15824e-01   7.91296e-01
   480    492      2   1.0000   -0.7620    0.2200   3.23307e-01   6.34780e-01
   481    482      2   1.0000    0.4150    0.3080   1.87801e-01   2.39696e-01
   482    487      2   1.0000    0.3080   -0.0030   3.39967e-01   4.57730e-01
   482    491      1
   482    496      1
   482    497      2   1.0000    0.3080   -0.7210   3.23307e-01   6.34780e-01
   482    499      2   1.0000    0.3080    0.4920   3.39967e-01   4.57730e-01
   483    485      1
   483    486      1
   483    493      1
   483    494      1
   483    495      1
   484    488      2   1.0000   -0.6290    0.0000   2.94976e-01   2.16155e-01
   484    489      2   1.0000   -0.6290    0.0000   2.94976e-01   2.16155e-01
   484    490      2   1.0000   -0.6290    0.0000   2.94976e-01   2.16155e-01
   484    493      1
   484    494      2   1.0000   -0.6290   -0.4030   3.12501e-01   7.11280e-01
   484    495      2   1.0000   -0.6290    0.1110   3.32484e-01   5.70591e-01
   485    487      1
   485    491      1
   485    492      1
   486    492      1
   488    491      1
   489    491      1
   490    491      1
   492    498      2   1.0000    0.2200    0.4350   1.87801e-01   2.39696e-01
   492    500      1
   492    501      2   1.0000    0.2200    0.1780   3.39967e-01   4.57730e-01
   492    506      2   1.0000    0.2200   -0.5210   3.19984e-01   5.70591e-01
   493    496      1
   493    497      1
   493    499      1
   494    496      1
   494    497      2   1.0000   -0.4030   -0.7210   3.03324e-01   7.91296e-01
   494    499      2   1.0000   -0.4030    0.4920   3.19984e-01   5.70591e-01
   495    502      1
   495    503      1
   495    504      2   1.0000    0.1110   -0.6890   3.23307e-01   6.34780e-01
   495    507      2   1.0000    0.1110    0.2370   3.39967e-01   4.57730e-01
   496    498      1
   496    500      1
   496    501      1
   496    506      1
   497    500      1
   497    501      2   1.0000   -0.7210    0.1780   3.23307e-01   6.34780e-01
   497    506      2   1.0000   -0.7210   -0.5210   3.03324e-01   7.91296e-01
   498    499      2   1.0000    0.4350    0.4920   1.87801e-01   2.39696e-01
   499    505      2   1.0000    0.4920    0.4080   1.87801e-01   2.39696e-01
   499    508      1
   499    511      2   1.0000    0.4920    0.0060   3.39967e-01   4.57730e-01
   499    530      2   1.0000    0.4920   -0.4030   3.19984e-01   5.70591e-01
   500    502      1
   500    503      1
   500    504      1
   500    507      1
   501    507      2   1.0000    0.1780    0.2370   3.39967e-01   4.57730e-01
   502    505      1
   502    506      1
   503    505      1
   503    506      1
   504    506      2   1.0000   -0.6890   -0.5210   3.03324e-01   7.91296e-01
   506    509      1
   506    510      1
   506    512      2   1.0000   -0.5210    0.0000   2.82477e-01   2.16155e-01
   506    513      2   1.0000   -0.5210    0.0000   2.82477e-01   2.16155e-01
   506    514      2   1.0000   -0.5210    0.3320   3.19984e-01   5.70591e-01
   506    528      2   1.0000   -0.5210    0.2200   3.19984e-01   5.70591e-01
   507    515      1
   507    516      2   1.0000    0.2370   -0.7620   3.23307e-01   6.34780e-01
   507    518      2   1.0000    0.2370    0.3080   3.39967e-01   4.57730e-01
   507    529      1
   507    531      2   1.0000    0.2370    0.1110   3.39967e-01   4.57730e-01
   508    512      1
   508    513      1
   508    514      1
   508    528      1
   509    511      1
   509    530      1
   510    511      1
   510    530      1
   511    517      2   1.0000    0.0060    0.4150   1.87801e-01   2.39696e-01
   511    519      1
   511    520      2   1.0000    0.0060   -0.6290   3.32484e-01   5.70591e-01
   511    528      2   1.0000    0.0060    0.2200   3.39967e-01   4.57730e-01
   512    515      1
   512    516      2   1.0000    0.0000   -0.7620   2.85800e-01   2.40472e-01
   512    518      2   1.0000    0.0000    0.3080   3.02460e-01   1.73401e-01
   512    530      2   1.0000    0.0000   -0.4030   2.82477e-01   2.16155e-01
   513    515      1
   513    516      2   1.0000    0.0000   -0.7620   2.85800e-01   2.40472e-01
   513    518      2   1.0000    0.0000    0.3080   3.02460e-01   1.73401e-01
   513    530      2   1.0000    0.0000   -0.4030   2.82477e-01   2.16155e-01
   514    521      1
   514    522      1
   514    529      1
   514    530      2   1.0000    0.3320   -0.4030   3.19984e-01   5.70591e-01
   514    531      2   1.0000    0.3320    0.1110   3.39967e-01   4.57730e-01
   515    517      1
   515    519      1
   515    520      1
   515    528      1
   516    519      1
   516    520      2   1.0000   -0.7620   -0.6290   3.15824e-01   7.91296e-01
   516    528      2   1.0000   -0.7620    0.2200   3.23307e-01   6.34780e-01
   517    518      2   1.0000    0.4150    0.3080   1.87801e-01   2.39696e-01
   518    523      2   1.0000    0.3080   -0.0030   3.39967e-01   4.57730e-01
   518    527      1
   518    532      1
   518    533      2   1.0000    0.3080   -0.7210   3.23307e-01   6.34780e-01
   518    535      2   1.0000    0.3080    0.4920   3.39967e-01   4.57730e-01
   519    521      1
   519    522      1
   519    529      1
   519    530      1
   519    531      1
   520    524      2   1.0000   -0.6290    0.0000   2.94976e-01   2.16155e-01
   520    525      2   1.0000   -0.6290    0.0000   2.94976e-01   2.16155e-01
   520    526      2   1.0000   -0.6290    0.0000   2.94976e-01   2.16155e-01
   520    529      1
   520    530      2   1.0000   -0.6290   -0.4030   3.12501e-01   7.11280e-01
   520    531      2   1.0000   -0.6290    0.1110   3.32484e-01   5.70591e-01
   521    523      1
   521    527      1
   521    528      1
   522    528      1
   524    527      1
   525    527      1
   526    527      1
   528    534      2   1.0000    0.2200    0.4350   1.87801e-01   2.39696e-01
   528    536      1
   528    537      2   1.0000    0.2200    0.1780   3.39967e-01   4.57730e-01
   528    542      2   1.0000    0.2200   -0.5210   3.19984e-01   5.70591e-01
   529    532      1
   529    533      1
   529    535      1
   530    532      1
   530    533      2   1.0000   -0.4030   -0.7210   3.03324e-01   7.91296e-01
   530    535      2   1.0000   -0.4030    0.4920   3.19984e-01   5.70591e-01
   531    538      1
   531    539      1
   531    540      2   1.0000    0.1110   -0.6890   3.23307e-01   6.34780e-01
   531    543      2   1.0000    0.1110    0.2370   3.39967e-01   4.57730e-01
   532    534      1
   532    536      1
   532    537      1
   532    542      1
   533    536      1
   533    537      2   1.0000   -0.7210    0.1780   3.23307e-01   6.34780e-01
   533    542      2   1.0000   -0.7210   -0.5210   3.03324e-01   7.91296e-01
   534    535      2   1.0000    0.4350    0.4920   1.87801e-01   2.39696e-01
   535    541      2   1.0000    0.4920    0.4080   1.87801e-01   2.39696e-01
   535    544      1
   535    547      2   1.0000    0.4920    0.0060   3.39967e-01   4.57730e-01
   535    566      2   1.0000    0.4920   -0.4030   3.19984e-01   5.70591e-01
   536    538      1
   536    539      1
   536    540      1
   536    543      1
   537    543      2   1.0000    0.1780    0.2370   3.39967e-01   4.57730e-01
   538    541      1
   538    542      1
   539    541      1
   539    542      1
   540    542      2   1.0000   -0.6890   -0.5210   3.03324e-01   7.91296e-01
   542    545      1
   542    546      1
   542    548      2   1.0000   -0.5210    0.0000   2.82477e-01   2.16155e-01
   542    549      2   1.0000   -0.5210    0.0000   2.82477e-01   2.16155e-01
   542    550      2   1.0000   -0.5210    0.3320   3.19984e-01   5.70591e-01
   542    564      2   1.0000   -0.5210    0.2200   3.19984e-01   5.70591e-01
   543    551      1
   543    552      2   1.0000    0.2370   -0.7620   3.23307e-01   6.34780e-01
   543    554      2   1.0000    0.2370    0.3080   3.39967e-01   4.57730e-01
   543    565      1
   543    567      2   1.0000    0.2370    0.1110   3.39967e-01   4.57730e-01
   544    548      1
   544    549      1
   544    550      1
   544    564      1
   545    547      1
   545    566      1
   546    547      1
   546    566      1
   547    553      2   1.0000    0.0060    0.4150   1.87801e-01   2.39696e-01
   547    555      1
   547    556      2   1.0000    0.0060   -0.6290   3.32484e-01   5.70591e-01
   547    564      2   1.0000    0.0060    0.2200   3.39967e-01   4.57730e-01
   548    551      1
   548    552      2   1.0000    0.0000   -0.7620   2.85800e-01   2.40472e-01
   548    554      2   1.0000    0.0000    0.3080   3.02460e-01   1.73401e-01
   548    566      2   1.0000    0.0000   -0.4030   2.82477e-01   2.16155e-01
   549    551      1
   549    552      2   1.0000    0.0000   -0.7620   2.85800e-01   2.40472e-01
   549    554      2   1.0000    0.0000    0.3080   3.02460e-01   1.73401e-01
   549    566      2   1.0000    0.0000   -0.4030   2.82477e-01   2.16155e-01
   550    557      1
   550    558      1
   550    565      1
   550    566      2   1.0000    0.3320   -0.4030   3.19984e-01   5.70591e-01
   550    567      2   1.0000    0.3320    0.1110   3.39967e-01   4.57730e-01
   551    553      1
   551    555      1
   551    556      1
   551    564      1
   552    555      1
   552    556      2   1.0000   -0.7620   -0.6290   3.15824e-01   7.91296e-01
   552    564      2   1.0000   -0.7620    0.2200   3.23307e-01   6.34780e-01
   553    554      2   1.0000    0.4150    0.3080   1.87801e-01   2.39696e-01
   554    559      2   1.0000    0.3080   -0.0030   3.39967e-01   4.57730e-01
   554    563      1
   554    568      1
   554    569      2   1.0000    0.3080   -0.7210   3.23307e-01   6.34780e-01
   554    571      2   1.0000    0.3080    0.4920   3.39967e-01   4.57730e-01
   555    557      1
   555    558      1
   555    565      1
   555    566      1
   555    567      1
   556    560      2   1.0000   -0.6290    0.0000   2.94976e-01   2.16155e-01
   556    561      2   1.0000   -0.6290    0.0000   2.94976e-01   2.16155e-01
   556    562      2   1.0000   -0.6290    0.0000   2.94976e-01   2.16155e-01
   556    565      1
   556    566      2   1.0000   -0.6290   -0.4030   3.12501e-01   7.11280e-01
   556    567      2   1.0000   -0.6290    0.1110   3.32484e-01   5.70591e-01
   557    559      1
   557    563      1
   557    564      1
   558    564      1
   560    563      1
   561    563      1
   562    563      1
   564    570      2   1.0000    0.2200    0.4350   1.87801e-01   2.39696e-01
   564    572      1
   564    573      2   1.0000    0.2200    0.1780   3.39967e-01   4.57730e-01
   564    578      2   1.0000    0.2200   -0.5210   3.19984e-01   5.70591e-01
   565    568      1
   565    569      1
   565    571      1
   566    568      1
   566    569      2   1.0000   -0.4030   -0.7210   3.03324e-01   7.91296e-01
   566    571      2   1.0000   -0.4030    0.4920   3.19984e-01   5.70591e-01
   567    574      1
   567    575      1
   567    576      2   1.0000    0.1110   -0.6890   3.23307e-01   6.34780e-01
   567    579      2   1.0000    0.1110    0.2370   3.39967e-01   4.57730e-01
   568    570      1
   568    572      1
   568    573      1
   568    578      1
   569    572      1
   569    573      2   1.0000   -0.7210    0.1780   3.23307e-01   6.34780e-01
   569    578      2   1.0000   -0.7210   -0.5210   3.03324e-01   7.91296e-01
   570    571      2   1.0000    0.4350    0.4920   1.87801e-01   2.39696e-01
   571    577      2   1.0000    0.4920    0.4080   1.87801e-01   2.39696e-01
   571    580      1
   571    583      2   1.0000    0.4920    0.0060   3.39967e-01   4.57730e-01
   571    602      2   1.0000    0.4920   -0.4030   3.19984e-01   5.70591e-01
   572    574      1
   572    575      1
   572    576      1
   572    579      1
   573    579      2   1.0000    0.1780    0.2370   3.39967e-01   4.57730e-01
   574    577      1
   574    578      1
   575    577      1
   575    578      1
   576    578      2   1.0000   -0.6890   -0.5210   3.03324e-01   7.91296e-01
   578    581      1
   578    582      1
   578    584      2   1.0000   -0.5210    0.0000   2.82477e-01   2.16155e-01
   578    585      2   1.0000   -0.5210    0.0000   2.82477e-01   2.16155e-01
   578    586      2   1.0000   -0.5210    0.3320   3.19984e-01   5.70591e-01
   578    600      2   1.0000   -0.5210    0.2200   3.19984e-01   5.70591e-01
   579    587      1
   579    588      2   1.0000    0.2370   -0.7620   3.23307e-01   6.34780e-01
   579    590      2   1.0000    0.2370    0.3080   3.39967e-01   4.57730e-01
   579    601      1
   579    603      2   1.0000    0.2370    0.1110   3.39967e-01   4.57730e-01
   580    584      1
   580    585      1
   580    586      1
   580    600      1
   581    583      1
   581    602      1
   582    583      1
   582    602      1
   583    589      2   1.0000    0.0060    0.4150   1.87801e-01   2.39696e-01
   583    591      1
   583    592      2   1.0000    0.0060   -0.6290   3.32484e-01   5.70591e-01
   583    600      2   1.0000    0.0060    0.2200   3.39967e-01   4.57730e-01
   584    587      1
   584    588      2   1.0000    0.0000   -0.7620   2.85800e-01   2.40472e-01
   584    590      2   1.0000    0.0000    0.3080   3.02460e-01   1.73401e-01
   584    602      2   1.0000    0.0000   -0.4030   2.82477e-01   2.16155e-01
   585    587      1
   585    588      2   1.0000    0.0000   -0.7620   2.85800e-01   2.40472e-01
   585    590      2   1.0000    0.0000    0.3080   3.02460e-01   1.73401e-01
   585    602      2   1.0000    0.0000   -0.4030   2.82477e-01   2.16155e-01
   586    593      1
   586    594      1
   586    601      1
   586    602      2   1.0000    0.3320   -0.4030   3.19984e-01   5.70591e-01
   586    603      2   1.0000    0.3320    0.1110   3.39967e-01   4.57730e-01
   587    589      1
   587    591      1
   587    592      1
   587    600      1
   588    591      1
   588    592      2   1.0000   -0.7620   -0.6290   3.15824e-01   7.91296e-01
   588    600      2   1.0000   -0.7620    0.2200   3.23307e-01   6.34780e-01
   589    590      2   1.0000    0.4150    0.3080   1.87801e-01   2.39696e-01
   590    595      2   1.0000    0.3080   -0.0030   3.39967e-01   4.57730e-01
   590    599      1
   590    604      1
   590    605      2   1.0000    0.3080   -0.7210   3.23307e-01   6.34780e-01
   590    607      2   1.0000    0.3080    0.4920   3.39967e-01   4.57730e-01
   591    593      1
   591    594      1
   591    601      1
   591    602      1
   591    603      1
   592    596      2   1.0000   -0.6290    0.0000   2.94976e-01   2.16155e-01
   592    597      2   1.0000   -0.6290    0.0000   2.94976e-01   2.16155e-01
   592    598      2   1.0000   -0.6290    0.0000   2.94976e-01   2.16155e-01
   592    601      1
   592    602      2   1.0000   -0.6290   -0.4030   3.12501e-01   7.11280e-01
   592    603      2   1.0000   -0.6290    0.1110   3.32484e-01   5.70591e-01
   593    595      1
   593    599      1
   593    600      1
   594    600      1
   596    599      1
   597    599      1
   598    599      1
   600    606      2   1.0000    0.2200    0.4350   1.87801e-01   2.39696e-01
   600    608      1
   600    609      2   1.0000    0.2200    0.1780   3.39967e-01   4.57730e-01
   600    614      2   1.0000    0.2200   -0.5210   3.19984e-01   5.70591e-01
   601    604      1
   601    605      1
   601    607      1
   602    604      1
   602    605      2   1.0000   -0.4030   -0.7210   3.03324e-01   7.91296e-01
   602    607      2   1.0000   -0.4030    0.4920   3.19984e-01   5.70591e-01
   603    610      1
   603    611      1
   603    612      2   1.0000    0.1110   -0.6890   3.23307e-01   6.34780e-01
   603    615      2   1.0000    0.1110    0.2370   3.39967e-01   4.57730e-01
   604    606      1
   604    608      1
   604    609      1
   604    614      1
   605    608      1
   605    609      2   1.0000   -0.7210    0.1780   3.23307e-01   6.34780e-01
   605    614      2   1.0000   -0.7210   -0.5210   3.03324e-01   7.91296e-01
   606    607      2   1.0000    0.4350    0.4920   1.87801e-01   2.39696e-01
   607    613      2   1.0000    0.4920    0.4080   1.87801e-01   2.39696e-01
   607    616      1
   607    619      2   1.0000    0.4920    0.0060   3.39967e-01   4.57730e-01
   607    638      2   1.0000    0.4920   -0.4030   3.19984e-01   5.70591e-01
   608    610      1
   608    611      1
   608    612      1
   608    615      1
   609    615      2   1.0000    0.1780    0.2370   3.39967e-01   4.57730e-01
   610    613      1
   610    614      1
   611    613      1
   611    614      1
   612    614      2   1.0000   -0.6890   -0.5210   3.03324e-01   7.91296e-01
   614    617      1
   614    618      1
   614    620      2   1.0000   -0.5210    0.0000   2.82477e-01   2.16155e-01
   614    621      2   1.0000   -0.5210    0.0000   2.82477e-01   2.16155e-01
   614    622      2   1.0000   -0.5210    0.3320   3.19984e-01   5.70591e-01
   614    636      2   1.0000   -0.5210    0.2200   3.19984e-01   5.70591e-01
   615    623      1
   615    624      2   1.0000    0.2370   -0.7620   3.23307e-01   6.34780e-01
   615    626      2   1.0000    0.2370    0.3080   3.39967e-01   4.57730e-01
   615    637      1
   615    639      2   1.0000    0.2370    0.1110   3.39967e-01   4.57730e-01
   616    620      1
   616    621      1
   616    622      1
   616    636      1
   617    619      1
   617    638      1
   618    619      1
   618    638      1
   619    625      2   1.0000    0.0060    0.4150   1.87801e-01   2.39696e-01
   619    627      1
   619    628      2   1.0000    0.0060   -0.6290   3.32484e-01   5.70591e-01
   619    636      2   1.0000    0.0060    0.2200   3.39967e-01   4.57730e-01
   620    623      1
   620    624      2   1.0000    0.0000   -0.7620   2.85800e-01   2.40472e-01
   620    626      2   1.0000    0.0000    0.3080   3.02460e-01   1.73401e-01
   620    638      2   1.0000    0.0000   -0.4030   2.82477e-01   2.16155e-01
   621    623      1
   621    624      2   1.0000    0.0000   -0.7620   2.85800e-01   2.40472e-01
   621    626      2   1.0000    0.0000    0.3080   3.02460e-01   1.73401e-01
   621    638      2   1.0000    0.0000   -0.4030   2.82477e-01   2.16155e-01
   622    629      1
   622    630      1
   622    637      1
   622    638      2   1.0000    0.3320   -0.4030   3.19984e-01   5.70591e-01
   622    639      2   1.0000    0.3320    0.1110   3.39967e-01   4.57730e-01
   623    625      1
   623    627      1
   623    628      1
   623    636      1
   624    627      1
   624    628      2   1.0000   -0.7620   -0.6290   3.15824e-01   7.91296e-01
   624    636      2   1.0000   -0.7620    0.2200   3.23307e-01   6.34780e-01
   625    626      2   1.0000    0.4150    0.3080   1.87801e-01   2.39696e-01
   626    631      2   1.0000    0.3080   -0.0030   3.39967e-01   4.57730e-01
   626    635      1
   626    640      1
   626    641      2   1.0000    0.3080   -0.7210   3.23307e-01   6.34780e-01
   626    643      2   1.0000    0.3080    0.4920   3.39967e-01   4.57730e-01
   627    629      1
   627    630      1
   627    637      1
   627    638      1
   627    639      1
   628    632      2   1.0000   -0.6290    0.0000   2.94976e-01   2.16155e-01
   628    633      2   1.0000   -0.6290    0.0000   2.94976e-01   2.16155e-01
   628    634      2   1.0000   -0.6290    0.0000   2.94976e-01   2.16155e-01
   628    637      1
   628    638      2   1.0000   -0.6290   -0.4030   3.12501e-01   7.11280e-01
   628    639      2   1.0000   -0.6290    0.1110   3.32484e-01   5.70591e-01
   629    631      1
   629    635      1
   629    636      1
   630    636      1
   632    635      1
   633    635      1
   634    635      1
   636    642      2   1.0000    0.2200    0.4350   1.87801e-01   2.39696e-01
   636    644      1
   636    645      2   1.0000    0.2200    0.1780   3.39967e-01   4.57730e-01
   636    650      2   1.0000    0.2200   -0.5210   3.19984e-01   5.70591e-01
   637    640      1
   637    641      1
   637    643      1
   638    640      1
   638    641      2   1.0000   -0.4030   -0.7210   3.03324e-01   7.91296e-01
   638    643      2   1.0000   -0.4030    0.4920   3.19984e-01   5.70591e-01
   639    646      1
   639    647      1
   639    648      2   1.0000    0.1110   -0.6890   3.23307e-01   6.34780e-01
   639    651      2   1.0000    0.1110    0.2370   3.39967e-01   4.57730e-01
   640    642      1
   640    644      1
   640    645      1
   640    650      1
   641    644      1
   641    645      2   1.0000   -0.7210    0.1780   3.23307e-01   6.34780e-01
   641    650      2   1.0000   -0.7210   -0.5210   3.03324e-01   7.91296e-01
   642    643      2   1.0000    0.4350    0.4920   1.87801e-01   2.39696e-01
   643    649      2   1.0000    0.4920    0.4080   1.87801e-01   2.39696e-01
   643    652      1
   643    655      2   1.0000    0.4920    0.0060   3.39967e-01   4.57730e-01
   643    674      2   1.0000    0.4920   -0.4030   3.19984e-01   5.70591e-01
   644    646      1
   644    647      1
   644    648      1
   644    651      1
   645    651      2   1.0000    0.1780    0.2370   3.39967e-01   4.57730e-01
   646    649      1
   646    650      1
   647    649      1
   647    650      1
   648    650      2   1.0000   -0.6890   -0.5210   3.03324e-01   7.91296e-01
   650    653      1
   650    654      1
   650    656      2   1.0000   -0.5210    0.0000   2.82477e-01   2.16155e-01
   650    657      2   1.0000   -0.5210    0.0000   2.82477e-01   2.16155e-01
   650    658      2   1.0000   -0.5210    0.3320   3.19984e-01   5.70591e-01
   650    672      2   1.0000   -0.5210    0.2200   3.19984e-01   5.70591e-01
   651    659      1
   651    660      2   1.0000    0.2370   -0.7620   3.23307e-01   6.34780e-01
   651    662      2   1.0000    0.2370    0.3080   3.39967e-01   4.57730e-01
   651    673      1
   651    675      2   1.0000    0.2370    0.1110   3.39967e-01   4.57730e-01
   652    656      1
   652    657      1
   652    658      1
   652    672      1
   653    655      1
   653    674      1
   654    655      1
   654    674      1
   655    661      2   1.0000    0.0060    0.4150   1.87801e-01   2.39696e-01
   655    663      1
   655    664      2   1.0000    0.0060   -0.6290   3.32484e-01   5.70591e-01
   655    672      2   1.0000    0.0060    0.2200   3.39967e-01   4.57730e-01
   656    659      1
   656    660      2   1.0000    0.0000   -0.7620   2.85800e-01   2.40472e-01
   656    662      2   1.0000    0.0000    0.3080   3.02460e-01   1.73401e-01
   656    674      2   1.0000    0.0000   -0.4030   2.82477e-01   2.16155e-01
   657    659      1
   657    660      2   1.0000    0.0000   -0.7620   2.85800e-01   2.40472e-01
   657    662      2   1.0000    0.0000    0.3080   3.02460e-01   1.73401e-01
   657    674      2   1.0000    0.0000   -0.4030   2.82477e-01   2.16155e-01
   658    665      1
   658    666      1
   658    673      1
   658    674      2   1.0000    0.3320   -0.4030   3.19984e-01   5.70591e-01
   658    675      2   1.0000    0.3320    0.1110   3.39967e-01   4.57730e-01
   659    661      1
   659    663      1
   659    664      1
   659    672      1
   660    663      1
   660    664      2   1.0000   -0.7620   -0.6290   3.15824e-01   7.91296e-01
   660    672      2   1.0000   -0.7620    0.2200   3.23307e-01   6.34780e-01
   661    662      2   1.0000    0.4150    0.3080   1.87801e-01   2.39696e-01
   662    667      2   1.0000    0.3080   -0.0030   3.39967e-01   4.57730e-01
   662    671      1
   662    676      1
   662    677      2   1.0000    0.3080   -0.7210   3.23307e-01   6.34780e-01
   662    679      2   1.0000    0.3080    0.4920   3.39967e-01   4.57730e-01
   663    665      1
   663    666      1
   663    673      1
   663    674      1
   663    675      1
   664    668      2   1.0000   -0.6290    0.0000   2.94976e-01   2.16155e-01
   664    669      2   1.0000   -0.6290    0.0000   2.94976e-01   2.16155e-01
   664    670      2   1.0000   -0.6290    0.0000   2.94976e-01   2.16155e-01
   664    673      1
   664    674      2   1.0000   -0.6290   -0.4030   3.12501e-01   7.11280e-01
   664    675      2   1.0000   -0.6290    0.1110   3.32484e-01   5.70591e-01
   665    667      1
   665    671      1
   665    672      1
   666    672      1
   668    671      1
   669    671      1
   670    671      1
   672    678      2   1.0000    0.2200    0.4350   1.87801e-01   2.39696e-01
   672    680      1
   672    681      2   1.0000    0.2200    0.1780   3.39967e-01   4.57730e-01
   672    686      2   1.0000    0.2200   -0.5210   3.19984e-01   5.70591e-01
   673    676      1
   673    677      1
   673    679      1
   674    676      1
   674    677      2   1.0000   -0.4030   -0.7210   3.03324e-01   7.91296e-01
   674    679      2   1.0000   -0.4030    0.4920   3.19984e-01   5.70591e-01
   675    682      1
   675    683      1
   675    684      2   1.0000    0.1110   -0.6890   3.23307e-01   6.34780e-01
   675    687      2   1.0000    0.1110    0.2370   3.39967e-01   4.57730e-01
   676    678      1
   676    680      1
   676    681      1
   676    686      1
   677    680      1
   677    681      2   1.0000   -0.7210    0.1780   3.23307e-01   6.34780e-01
   677    686      2   1.0000   -0.7210   -0.5210   3.03324e-01   7.91296e-01
   678    679      2   1.0000    0.4350    0.4920   1.87801e-01   2.39696e-01
   679    685      2   1.0000    0.4920    0.4080   1.87801e-01   2.39696e-01
   679    688      1
   679    691      2   1.0000    0.4920    0.0060   3.39967e-01   4.57730e-01
   679    713      2   1.0000    0.4920   -0.4030   3.19984e-01   5.70591e-01
   680    682      1
   680    683      1
   680    684      1
   680    687      1
   681    687      2   1.0000    0.1780    0.2370   3.39967e-01   4.57730e-01
   682    685      1
   682    686      1
   683    685      1
   683    686      1
   684    686      2   1.0000   -0.6890   -0.5210   3.03324e-01   7.91296e-01
   686    689      1
   686    690      1
   686    692      2   1.0000   -0.5210    0.0000   2.82477e-01   2.16155e-01
   686    693      2   1.0000   -0.5210    0.0000   2.82477e-01   2.16155e-01
   686    694      2   1.0000   -0.5210    0.3320   3.19984e-01   5.70591e-01
   686    698      2   1.0000   -0.5210    0.2200   3.19984e-01   5.70591e-01
   687    695      1
   687    696      2   1.0000    0.2370    0.3080   3.39967e-01   4.57730e-01
   687    699      1
   687    700      2   1.0000    0.2370    0.1110   3.39967e-01   4.57730e-01
   687    722      2   1.0000    0.2370   -0.7620   3.23307e-01   6.34780e-01
   688    692      1
   688    693      1
   688    694      1
   688    698      1
   689    691      1
   689    713      1
   690    691      1
   690    713      1
   691    697      1
   691    698      2   1.0000    0.0060    0.2200   3.39967e-01   4.57730e-01
   691    714      2   1.0000    0.0060   -0.6290   3.32484e-01   5.70591e-01
   691    723      2   1.0000    0.0060    0.4150   1.87801e-01   2.39696e-01
   692    695      1
   692    696      2   1.0000    0.0000    0.3080   3.02460e-01   1.73401e-01
   692    713      2   1.0000    0.0000   -0.4030   2.82477e-01   2.16155e-01
   692    722      2   1.0000    0.0000   -0.7620   2.85800e-01   2.40472e-01
   693    695      1
   693    696      2   1.0000    0.0000    0.3080   3.02460e-01   1.73401e-01
   693    713      2   1.0000    0.0000   -0.4030   2.82477e-01   2.16155e-01
   693    722      2   1.0000    0.0000   -0.7620   2.85800e-01   2.40472e-01
   694    699      1
   694    700      2   1.0000    0.3320    0.1110   3.39967e-01   4.57730e-01
   694    713      2   1.0000    0.3320   -0.4030   3.19984e-01   5.70591e-01
   694    715      1
   694    716      1
   695    697      1
   695    698      1
   695    714      1
   695    723      1
   696    701      1
   696    702      2   1.0000    0.3080    0.4920   3.39967e-01   4.57730e-01
   696    711      2   1.0000    0.3080   -0.7210   3.23307e-01   6.34780e-01
   696    717      2   1.0000    0.3080   -0.0030   3.39967e-01   4.57730e-01
   696    721      1
   696    723      2   1.0000    0.3080    0.4150   1.87801e-01   2.39696e-01
   697    699      1
   697    700      1
   697    713      1
   697    715      1
   697    716      1
   697    722      1
   698    703      1
   698    704      2   1.0000    0.2200    0.1780   3.39967e-01   4.57730e-01
   698    709      2   1.0000    0.2200   -0.7390   3.23307e-01   6.34780e-01
   698    712      2   1.0000    0.2200    0.4350   1.87801e-01   2.39696e-01
   698    715      1
   698    716      1
   698    722      2   1.0000    0.2200   -0.7620   3.23307e-01   6.34780e-01
   699    701      1
   699    702      1
   699    711      1
   699    714      1
   700    705      1
   700    706      1
   700    707      2   1.0000    0.1110   -0.6890   3.23307e-01   6.34780e-01
   700    710      2   1.0000    0.1110    0.4120   1.87801e-01   2.39696e-01
   700    714      2   1.0000    0.1110   -0.6290   3.32484e-01   5.70591e-01
   701    703      1
   701    704      1
   701    709      1
   701    712      1
   701    713      1
   702    708      2   1.0000    0.4920    0.4080   1.87801e-01   2.39696e-01
   702    712      2   1.0000    0.4920    0.4350   1.87801e-01   2.39696e-01
   702    713      2   1.0000    0.4920   -0.4030   3.19984e-01   5.70591e-01
   703    705      1
   703    706      1
   703    707      1
   703    710      1
   703    711      1
   704    710      2   1.0000    0.1780    0.4120   1.87801e-01   2.39696e-01
   704    711      2   1.0000    0.1780   -0.7210   3.23307e-01   6.34780e-01
   705    708      1
   705    709      1
   706    708      1
   706    709      1
   707    709      2   1.0000   -0.6890   -0.7390   3.06647e-01   8.80314e-01
   709    711      2   1.0000   -0.7390   -0.7210   3.06647e-01   8.80314e-01
   711    713      2   1.0000   -0.7210   -0.4030   3.03324e-01   7.91296e-01
   713    714      2   1.0000   -0.4030   -0.6290   3.12501e-01   7.11280e-01
   714    718      2   1.0000   -0.6290    0.0000   2.94976e-01   2.16155e-01
   714    719      2   1.0000   -0.6290    0.0000   2.94976e-01   2.16155e-01
   714    720      2   1.0000   -0.6290    0.0000   2.94976e-01   2.16155e-01
   714    722      2   1.0000   -0.6290   -0.7620   3.15824e-01   7.91296e-01
   715    717      1
   715    721      1
   718    721      1
   719    721      1
   720    721      1

[ angles ]
;    ai    aj     ak   funct   c0   c1
     1      2      3      1
     2      3      4      1
     2      3      7      1
     2      3     26      1
     4      3      7      1
     4      3     26      1
     7      3     26      1
     3      4      5      1
     3      4      6      1
     5      4      6      1
     3      7      8      1
     3      7      9      1
     3      7     10      1
     8      7      9      1
     8      7     10      1
     9      7     10      1
     7     10     11      1
     7     10     12      1
     7     10     14      1
    11     10     12      1
    11     10     14      1
    12     10     14      1
    10     12     13      1
    10     14     15      1
    10     14     16      1
    10     14     24      1
    15     14     16      1
    15     14     24      1
    16     14     24      1
    14     16     17      1
    14     16     18      1
    17     16     18      1
    16     18     19      1
    16     18     23      1
    19     18     23      1
    18     19     20      1
    18     19     21      1
    18     19     22      1
    20     19     21      1
    20     19     22      1
    21     19     22      1
    14     24     25      1
    14     24     26      1
    14     24     27      1
    25     24     26      1
    25     24     27      1
    26     24     27      1
     3     26     24      1
    24     27     28      1
    24     27     29      1
    24     27     31      1
    28     27     29      1
    28     27     31      1
    29     27     31      1
    27     29     30      1
    27     31     32      1
    27     31     33      1
    27     31     38      1
    32     31     33      1
    32     31     38      1
    33     31     38      1
    31     33     34      1
    31     33     35      1
    31     33     36      1
    34     33     35      1
    34     33     36      1
    35     33     36      1
    33     36     37      1
    31     38     39      1
    38     39     40      1
    38     39     43      1
    38     39     62      1
    40     39     43      1
    40     39     62      1
    43     39     62      1
    39     40     41      1
    39     40     42      1
    41     40     42      1
    39     43     44      1
    39     43     45      1
    39     43     46      1
    44     43     45      1
    44     43     46      1
    45     43     46      1
    43     46     47      1
    43     46     48      1
    43     46     50      1
    47     46     48      1
    47     46     50      1
    48     46     50      1
    46     48     49      1
    46     50     51      1
    46     50     52      1
    46     50     60      1
    51     50     52      1
    51     50     60      1
    52     50     60      1
    50     52     53      1
    50     52     54      1
    53     52     54      1
    52     54     55      1
    52     54     59      1
    55     54     59      1
    54     55     56      1
    54     55     57      1
    54     55     58      1
    56     55     57      1
    56     55     58      1
    57     55     58      1
    50     60     61      1
    50     60     62      1
    50     60     63      1
    61     60     62      1
    61     60     63      1
    62     60     63      1
    39     62     60      1
    60     63     64      1
    60     63     65      1
    60     63     67      1
    64     63     65      1
    64     63     67      1
    65     63     67      1
    63     65     66      1
    63     67     68      1
    63     67     69      1
    63     67     74      1
    68     67     69      1
    68     67     74      1
    69     67     74      1
    67     69     70      1
    67     69     71      1
    67     69     72      1
    70     69     71      1
    70     69     72      1
    71     69     72      1
    69     72     73      1
    67     74     75      1
    74     75     76      1
    74     75     79      1
    74     75     98      1
    76     75     79      1
    76     75     98      1
    79     75     98      1
    75     76     77      1
    75     76     78      1
    77     76     78      1
    75     79     80      1
    75     79     81      1
    75     79     82      1
    80     79     81      1
    80     79     82      1
    81     79     82      1
    79     82     83      1
    79     82     84      1
    79     82     86      1
    83     82     84      1
    83     82     86      1
    84     82     86      1
    82     84     85      1
    82     86     87      1
    82     86     88      1
    82     86     96      1
    87     86     88      1
    87     86     96      1
    88     86     96      1
    86     88     89      1
    86     88     90      1
    89     88     90      1
    88     90     91      1
    88     90     95      1
    91     90     95      1
    90     91     92      1
    90     91     93      1
    90     91     94      1
    92     91     93      1
    92     91     94      1
    93     91     94      1
    86     96     97      1
    86     96     98      1
    86     96     99      1
    97     96     98      1
    97     96     99      1
    98     96     99      1
    75     98     96      1
    96     99    100      1
    96     99    101      1
    96     99    103      1
   100     99    101      1
   100     99    103      1
   101     99    103      1
    99    101    102      1
    99    103    104      1
    99    103    105      1
    99    103    110      1
   104    103    105      1
   104    103    110      1
   105    103    110      1
   103    105    106      1
   103    105    107      1
   103    105    108      1
   106    105    107      1
   106    105    108      1
   107    105    108      1
   105    108    109      1
   103    110    111      1
   110    111    112      1
   110    111    115      1
   110    111    134      1
   112    111    115      1
   112    111    134      1
   115    111    134      1
   111    112    113      1
   111    112    114      1
   113    112    114      1
   111    115    116      1
   111    115    117      1
   111    115    118      1
   116    115    117      1
   116    115    118      1
   117    115    118      1
   115    118    119      1
   115    118    120      1
   115    118    122      1
   119    118    120      1
   119    118    122      1
   120    118    122      1
   118    120    121      1
   118    122    123      1
   118    122    124      1
   118    122    132      1
   123    122    124      1
   123    122    132      1
   124    122    132      1
   122    124    125      1
   122    124    126      1
   125    124    126      1
   124    126    127      1
   124    126    131      1
   127    126    131      1
   126    127    128      1
   126    127    129      1
   126    127    130      1
   128    127    129      1
   128    127    130      1
   129    127    130      1
   122    132    133      1
   122    132    134      1
   122    132    135      1
   133    132    134      1
   133    132    135      1
   134    132    135      1
   111    134    132      1
   132    135    136      1
   132    135    137      1
   132    135    139      1
   136    135    137      1
   136    135    139      1
   137    135    139      1
   135    137    138      1
   135    139    140      1
   135    139    141      1
   135    139    146      1
   140    139    141      1
   140    139    146      1
   141    139    146      1
   139    141    142      1
   139    141    143      1
   139    141    144      1
   142    141    143      1
   142    141    144      1
   143    141    144      1
   141    144    145      1
   139    146    147      1
   146    147    148      1
   146    147    151      1
   146    147    170      1
   148    147    151      1
   148    147    170      1
   151    147    170      1
   147    148    149      1
   147    148    150      1
   149    148    150      1
   147    151    152      1
   147    151    153      1
   147    151    154      1
   152    151    153      1
   152    151    154      1
   153    151    154      1
   151    154    155      1
   151    154    156      1
   151    154    158      1
   155    154    156      1
   155    154    158      1
   156    154    158      1
   154    156    157      1
   154    158    159      1
   154    158    160      1
   154    158    168      1
   159    158    160      1
   159    158    168      1
   160    158    168      1
   158    160    161      1
   158    160    162      1
   161    160    162      1
   160    162    163      1
   160    162    167      1
   163    162    167      1
   162    163    164      1
   162    163    165      1
   162    163    166      1
   164    163    165      1
   164    163    166      1
   165    163    166      1
   158    168    169      1
   158    168    170      1
   158    168    171      1
   169    168    170      1
   169    168    171      1
   170    168    171      1
   147    170    168      1
   168    171    172      1
   168    171    173      1
   168    171    175      1
   172    171    173      1
   172    171    175      1
   173    171    175      1
   171    173    174      1
   171    175    176      1
   171    175    177      1
   171    175    182      1
   176    175    177      1
   176    175    182      1
   177    175    182      1
   175    177    178      1
   175    177    179      1
   175    177    180      1
   178    177    179      1
   178    177    180      1
   179    177    180      1
   177    180    181      1
   175    182    183      1
   182    183    184      1
   182    183    187      1
   182    183    206      1
   184    183    187      1
   184    183    206      1
   187    183    206      1
   183    184    185      1
   183    184    186      1
   185    184    186      1
   183    187    188      1
   183    187    189      1
   183    187    190      1
   188    187    189      1
   188    187    190      1
   189    187    190      1
   187    190    191      1
   187    190    192      1
   187    190    194      1
   191    190    192      1
   191    190    194      1
   192    190    194      1
   190    192    193      1
   190    194    195      1
   190    194    196      1
   190    194    204      1
   195    194    196      1
   195    194    204      1
   196    194    204      1
   194    196    197      1
   194    196    198      1
   197    196    198      1
   196    198    199      1
   196    198    203      1
   199    198    203      1
   198    199    200      1
   198    199    201      1
   198    199    202      1
   200    199    201      1
   200    199    202      1
   201    199    202      1
   194    204    205      1
   194    204    206      1
   194    204    207      1
   205    204    206      1
   205    204    207      1
   206    204    207      1
   183    206    204      1
   204    207    208      1
   204    207    209      1
   204    207    211      1
   208    207    209      1
   208    207    211      1
   209    207    211      1
   207    209    210      1
   207    211    212      1
   207    211    213      1
   207    211    218      1
   212    211    213      1
   212    211    218      1
   213    211    218      1
   211    213    214      1
   211    213    215      1
   211    213    216      1
   214    213    215      1
   214    213    216      1
   215    213    216      1
   213    216    217      1
   211    218    219      1
   218    219    220      1
   218    219    223      1
   218    219    242      1
   220    219    223      1
   220    219    242      1
   223    219    242      1
   219    220    221      1
   219    220    222      1
   221    220    222      1
   219    223    224      1
   219    223    225      1
   219    223    226      1
   224    223    225      1
   224    223    226      1
   225    223    226      1
   223    226    227      1
   223    226    228      1
   223    226    230      1
   227    226    228      1
   227    226    230      1
   228    226    230      1
   226    228    229      1
   226    230    231      1
   226    230    232      1
   226    230    240      1
   231    230    232      1
   231    230    240      1
   232    230    240      1
   230    232    233      1
   230    232    234      1
   233    232    234      1
   232    234    235      1
   232    234    239      1
   235    234    239      1
   234    235    236      1
   234    235    237      1
   234    235    238      1
   236    235    237      1
   236    235    238      1
   237    235    238      1
   230    240    241      1
   230    240    242      1
   230    240    243      1
   241    240    242      1
   241    240    243      1
   242    240    243      1
   219    242    240      1
   240    243    244      1
   240    243    245      1
   240    243    247      1
   244    243    245      1
   244    243    247      1
   245    243    247      1
   243    245    246      1
   243    247    248      1
   243    247    249      1
   243    247    254      1
   248    247    249      1
   248    247    254      1
   249    247    254      1
   247    249    250      1
   247    249    251      1
   247    249    252      1
   250    249    251      1
   250    249    252      1
   251    249    252      1
   249    252    253      1
   247    254    255      1
   254    255    256      1
   254    255    259      1
   254    255    278      1
   256    255    259      1
   256    255    278      1
   259    255    278      1
   255    256    257      1
   255    256    258      1
   257    256    258      1
   255    259    260      1
   255    259    261      1
   255    259    262      1
   260    259    261      1
   260    259    262      1
   261    259    262      1
   259    262    263      1
   259    262    264      1
   259    262    266      1
   263    262    264      1
   263    262    266      1
   264    262    266      1
   262    264    265      1
   262    266    267      1
   262    266    268      1
   262    266    276      1
   267    266    268      1
   267    266    276      1
   268    266    276      1
   266    268    269      1
   266    268    270      1
   269    268    270      1
   268    270    271      1
   268    270    275      1
   271    270    275      1
   270    271    272      1
   270    271    273      1
   270    271    274      1
   272    271    273      1
   272    271    274      1
   273    271    274      1
   266    276    277      1
   266    276    278      1
   266    276    279      1
   277    276    278      1
   277    276    279      1
   278    276    279      1
   255    278    276      1
   276    279    280      1
   276    279    281      1
   276    279    283      1
   280    279    281      1
   280    279    283      1
   281    279    283      1
   279    281    282      1
   279    283    284      1
   279    283    285      1
   279    283    290      1
   284    283    285      1
   284    283    290      1
   285    283    290      1
   283    285    286      1
   283    285    287      1
   283    285    288      1
   286    285    287      1
   286    285    288      1
   287    285    288      1
   285    288    289      1
   283    290    291      1
   290    291    292      1
   290    291    295      1
   290    291    314      1
   292    291    295      1
   292    291    314      1
   295    291    314      1
   291    292    293      1
   291    292    294      1
   293    292    294      1
   291    295    296      1
   291    295    297      1
   291    295    298      1
   296    295    297      1
   296    295    298      1
   297    295    298      1
   295    298    299      1
   295    298    300      1
   295    298    302      1
   299    298    300      1
   299    298    302      1
   300    298    302      1
   298    300    301      1
   298    302    303      1
   298    302    304      1
   298    302    312      1
   303    302    304      1
   303    302    312      1
   304    302    312      1
   302    304    305      1
   302    304    306      1
   305    304    306      1
   304    306    307      1
   304    306    311      1
   307    306    311      1
   306    307    308      1
   306    307    309      1
   306    307    310      1
   308    307    309      1
   308    307    310      1
   309    307    310      1
   302    312    313      1
   302    312    314      1
   302    312    315      1
   313    312    314      1
   313    312    315      1
   314    312    315      1
   291    314    312      1
   312    315    316      1
   312    315    317      1
   312    315    319      1
   316    315    317      1
   316    315    319      1
   317    315    319      1
   315    317    318      1
   315    319    320      1
   315    319    321      1
   315    319    326      1
   320    319    321      1
   320    319    326      1
   321    319    326      1
   319    321    322      1
   319    321    323      1
   319    321    324      1
   322    321    323      1
   322    321    324      1
   323    321    324      1
   321    324    325      1
   319    326    327      1
   326    327    328      1
   326    327    331      1
   326    327    350      1
   328    327    331      1
   328    327    350      1
   331    327    350      1
   327    328    329      1
   327    328    330      1
   329    328    330      1
   327    331    332      1
   327    331    333      1
   327    331    334      1
   332    331    333      1
   332    331    334      1
   333    331    334      1
   331    334    335      1
   331    334    336      1
   331    334    338      1
   335    334    336      1
   335    334    338      1
   336    334    338      1
   334    336    337      1
   334    338    339      1
   334    338    340      1
   334    338    348      1
   339    338    340      1
   339    338    348      1
   340    338    348      1
   338    340    341      1
   338    340    342      1
   341    340    342      1
   340    342    343      1
   340    342    347      1
   343    342    347      1
   342    343    344      1
   342    343    345      1
   342    343    346      1
   344    343    345      1
   344    343    346      1
   345    343    346      1
   338    348    349      1
   338    348    350      1
   338    348    351      1
   349    348    350      1
   349    348    351      1
   350    348    351      1
   327    350    348      1
   348    351    352      1
   348    351    353      1
   348    351    355      1
   352    351    353      1
   352    351    355      1
   353    351    355      1
   351    353    354      1
   351    355    356      1
   351    355    357      1
   351    355    362      1
   356    355    357      1
   356    355    362      1
   357    355    362      1
   355    357    358      1
   355    357    359      1
   355    357    360      1
   358    357    359      1
   358    357    360      1
   359    357    360      1
   357    360    361      1
   355    362    363      1
   362    363    364      1
   362    363    367      1
   362    363    386      1
   364    363    367      1
   364    363    386      1
   367    363    386      1
   363    364    365      1
   363    364    366      1
   365    364    366      1
   363    367    368      1
   363    367    369      1
   363    367    370      1
   368    367    369      1
   368    367    370      1
   369    367    370      1
   367    370    371      1
   367    370    372      1
   367    370    374      1
   371    370    372      1
   371    370    374      1
   372    370    374      1
   370    372    373      1
   370    374    375      1
   370    374    376      1
   370    374    384      1
   375    374    376      1
   375    374    384      1
   376    374    384      1
   374    376    377      1
   374    376    378      1
   377    376    378      1
   376    378    379      1
   376    378    383      1
   379    378    383      1
   378    379    380      1
   378    379    381      1
   378    379    382      1
   380    379    381      1
   380    379    382      1
   381    379    382      1
   374    384    385      1
   374    384    386      1
   374    384    387      1
   385    384    386      1
   385    384    387      1
   386    384    387      1
   363    386    384      1
   384    387    388      1
   384    387    389      1
   384    387    391      1
   388    387    389      1
   388    387    391      1
   389    387    391      1
   387    389    390      1
   387    391    392      1
   387    391    393      1
   387    391    398      1
   392    391    393      1
   392    391    398      1
   393    391    398      1
   391    393    394      1
   391    393    395      1
   391    393    396      1
   394    393    395      1
   394    393    396      1
   395    393    396      1
   393    396    397      1
   391    398    399      1
   398    399    400      1
   398    399    403      1
   398    399    422      1
   400    399    403      1
   400    399    422      1
   403    399    422      1
   399    400    401      1
   399    400    402      1
   401    400    402      1
   399    403    404      1
   399    403    405      1
   399    403    406      1
   404    403    405      1
   404    403    406      1
   405    403    406      1
   403    406    407      1
   403    406    408      1
   403    406    410      1
   407    406    408      1
   407    406    410      1
   408    406    410      1
   406    408    409      1
   406    410    411      1
   406    410    412      1
   406    410    420      1
   411    410    412      1
   411    410    420      1
   412    410    420      1
   410    412    413      1
   410    412    414      1
   413    412    414      1
   412    414    415      1
   412    414    419      1
   415    414    419      1
   414    415    416      1
   414    415    417      1
   414    415    418      1
   416    415    417      1
   416    415    418      1
   417    415    418      1
   410    420    421      1
   410    420    422      1
   410    420    423      1
   421    420    422      1
   421    420    423      1
   422    420    423      1
   399    422    420      1
   420    423    424      1
   420    423    425      1
   420    423    427      1
   424    423    425      1
   424    423    427      1
   425    423    427      1
   423    425    426      1
   423    427    428      1
   423    427    429      1
   423    427    434      1
   428    427    429      1
   428    427    434      1
   429    427    434      1
   427    429    430      1
   427    429    431      1
   427    429    432      1
   430    429    431      1
   430    429    432      1
   431    429    432      1
   429    432    433      1
   427    434    435      1
   434    435    436      1
   434    435    439      1
   434    435    458      1
   436    435    439      1
   436    435    458      1
   439    435    458      1
   435    436    437      1
   435    436    438      1
   437    436    438      1
   435    439    440      1
   435    439    441      1
   435    439    442      1
   440    439    441      1
   440    439    442      1
   441    439    442      1
   439    442    443      1
   439    442    444      1
   439    442    446      1
   443    442    444      1
   443    442    446      1
   444    442    446      1
   442    444    445      1
   442    446    447      1
   442    446    448      1
   442    446    456      1
   447    446    448      1
   447    446    456      1
   448    446    456      1
   446    448    449      1
   446    448    450      1
   449    448    450      1
   448    450    451      1
   448    450    455      1
   451    450    455      1
   450    451    452      1
   450    451    453      1
   450    451    454      1
   452    451    453      1
   452    451    454      1
   453    451    454      1
   446    456    457      1
   446    456    458      1
   446    456    459      1
   457    456    458      1
   457    456    459      1
   458    456    459      1
   435    458    456      1
   456    459    460      1
   456    459    461      1
   456    459    463      1
   460    459    461      1
   460    459    463      1
   461    459    463      1
   459    461    462      1
   459    463    464      1
   459    463    465      1
   459    463    470      1
   464    463    465      1
   464    463    470      1
   465    463    470      1
   463    465    466      1
   463    465    467      1
   463    465    468      1
   466    465    467      1
   466    465    468      1
   467    465    468      1
   465    468    469      1
   463    470    471      1
   470    471    472      1
   470    471    475      1
   470    471    494      1
   472    471    475      1
   472    471    494      1
   475    471    494      1
   471    472    473      1
   471    472    474      1
   473    472    474      1
   471    475    476      1
   471    475    477      1
   471    475    478      1
   476    475    477      1
   476    475    478      1
   477    475    478      1
   475    478    479      1
   475    478    480      1
   475    478    482      1
   479    478    480      1
   479    478    482      1
   480    478    482      1
   478    480    481      1
   478    482    483      1
   478    482    484      1
   478    482    492      1
   483    482    484      1
   483    482    492      1
   484    482    492      1
   482    484    485      1
   482    484    486      1
   485    484    486      1
   484    486    487      1
   484    486    491      1
   487    486    491      1
   486    487    488      1
   486    487    489      1
   486    487    490      1
   488    487    489      1
   488    487    490      1
   489    487    490      1
   482    492    493      1
   482    492    494      1
   482    492    495      1
   493    492    494      1
   493    492    495      1
   494    492    495      1
   471    494    492      1
   492    495    496      1
   492    495    497      1
   492    495    499      1
   496    495    497      1
   496    495    499      1
   497    495    499      1
   495    497    498      1
   495    499    500      1
   495    499    501      1
   495    499    506      1
   500    499    501      1
   500    499    506      1
   501    499    506      1
   499    501    502      1
   499    501    503      1
   499    501    504      1
   502    501    503      1
   502    501    504      1
   503    501    504      1
   501    504    505      1
   499    506    507      1
   506    507    508      1
   506    507    511      1
   506    507    530      1
   508    507    511      1
   508    507    530      1
   511    507    530      1
   507    508    509      1
   507    508    510      1
   509    508    510      1
   507    511    512      1
   507    511    513      1
   507    511    514      1
   512    511    513      1
   512    511    514      1
   513    511    514      1
   511    514    515      1
   511    514    516      1
   511    514    518      1
   515    514    516      1
   515    514    518      1
   516    514    518      1
   514    516    517      1
   514    518    519      1
   514    518    520      1
   514    518    528      1
   519    518    520      1
   519    518    528      1
   520    518    528      1
   518    520    521      1
   518    520    522      1
   521    520    522      1
   520    522    523      1
   520    522    527      1
   523    522    527      1
   522    523    524      1
   522    523    525      1
   522    523    526      1
   524    523    525      1
   524    523    526      1
   525    523    526      1
   518    528    529      1
   518    528    530      1
   518    528    531      1
   529    528    530      1
   529    528    531      1
   530    528    531      1
   507    530    528      1
   528    531    532      1
   528    531    533      1
   528    531    535      1
   532    531    533      1
   532    531    535      1
   533    531    535      1
   531    533    534      1
   531    535    536      1
   531    535    537      1
   531    535    542      1
   536    535    537      1
   536    535    542      1
   537    535    542      1
   535    537    538      1
   535    537    539      1
   535    537    540      1
   538    537    539      1
   538    537    540      1
   539    537    540      1
   537    540    541      1
   535    542    543      1
   542    543    544      1
   542    543    547      1
   542    543    566      1
   544    543    547      1
   544    543    566      1
   547    543    566      1
   543    544    545      1
   543    544    546      1
   545    544    546      1
   543    547    548      1
   543    547    549      1
   543    547    550      1
   548    547    549      1
   548    547    550      1
   549    547    550      1
   547    550    551      1
   547    550    552      1
   547    550    554      1
   551    550    552      1
   551    550    554      1
   552    550    554      1
   550    552    553      1
   550    554    555      1
   550    554    556      1
   550    554    564      1
   555    554    556      1
   555    554    564      1
   556    554    564      1
   554    556    557      1
   554    556    558      1
   557    556    558      1
   556    558    559      1
   556    558    563      1
   559    558    563      1
   558    559    560      1
   558    559    561      1
   558    559    562      1
   560    559    561      1
   560    559    562      1
   561    559    562      1
   554    564    565      1
   554    564    566      1
   554    564    567      1
   565    564    566      1
   565    564    567      1
   566    564    567      1
   543    566    564      1
   564    567    568      1
   564    567    569      1
   564    567    571      1
   568    567    569      1
   568    567    571      1
   569    567    571      1
   567    569    570      1
   567    571    572      1
   567    571    573      1
   567    571    578      1
   572    571    573      1
   572    571    578      1
   573    571    578      1
   571    573    574      1
   571    573    575      1
   571    573    576      1
   574    573    575      1
   574    573    576      1
   575    573    576      1
   573    576    577      1
   571    578    579      1
   578    579    580      1
   578    579    583      1
   578    579    602      1
   580    579    583      1
   580    579    602      1
   583    579    602      1
   579    580    581      1
   579    580    582      1
   581    580    582      1
   579    583    584      1
   579    583    585      1
   579    583    586      1
   584    583    585      1
   584    583    586      1
   585    583    586      1
   583    586    587      1
   583    586    588      1
   583    586    590      1
   587    586    588      1
   587    586    590      1
   588    586    590      1
   586    588    589      1
   586    590    591      1
   586    590    592      1
   586    590    600      1
   591    590    592      1
   591    590    600      1
   592    590    600      1
   590    592    593      1
   590    592    594      1
   593    592    594      1
   592    594    595      1
   592    594    599      1
   595    594    599      1
   594    595    596      1
   594    595    597      1
   594    595    598      1
   596    595    597      1
   596    595    598      1
   597    595    598      1
   590    600    601      1
   590    600    602      1
   590    600    603      1
   601    600    602      1
   601    600    603      1
   602    600    603      1
   579    602    600      1
   600    603    604      1
   600    603    605      1
   600    603    607      1
   604    603    605      1
   604    603    607      1
   605    603    607      1
   603    605    606      1
   603    607    608      1
   603    607    609      1
   603    607    614      1
   608    607    609      1
   608    607    614      1
   609    607    614      1
   607    609    610      1
   607    609    611      1
   607    609    612      1
   610    609    611      1
   610    609    612      1
   611    609    612      1
   609    612    613      1
   607    614    615      1
   614    615    616      1
   614    615    619      1
   614    615    638      1
   616    615    619      1
   616    615    638      1
   619    615    638      1
   615    616    617      1
   615    616    618      1
   617    616    618      1
   615    619    620      1
   615    619    621      1
   615    619    622      1
   620    619    621      1
   620    619    622      1
   621    619    622      1
   619    622    623      1
   619    622    624      1
   619    622    626      1
   623    622    624      1
   623    622    626      1
   624    622    626      1
   622    624    625      1
   622    626    627      1
   622    626    628      1
   622    626    636      1
   627    626    628      1
   627    626    636      1
   628    626    636      1
   626    628    629      1
   626    628    630      1
   629    628    630      1
   628    630    631      1
   628    630    635      1
   631    630    635      1
   630    631    632      1
   630    631    633      1
   630    631    634      1
   632    631    633      1
   632    631    634      1
   633    631    634      1
   626    636    637      1
   626    636    638      1
   626    636    639      1
   637    636    638      1
   637    636    639      1
   638    636    639      1
   615    638    636      1
   636    639    640      1
   636    639    641      1
   636    639    643      1
   640    639    641      1
   640    639    643      1
   641    639    643      1
   639    641    642      1
   639    643    644      1
   639    643    645      1
   639    643    650      1
   644    643    645      1
   644    643    650      1
   645    643    650      1
   643    645    646      1
   643    645    647      1
   643    645    648      1
   646    645    647      1
   646    645    648      1
   647    645    648      1
   645    648    649      1
   643    650    651      1
   650    651    652      1
   650    651    655      1
   650    651    674      1
   652    651    655      1
   652    651    674      1
   655    651    674      1
   651    652    653      1
   651    652    654      1
   653    652    654      1
   651    655    656      1
   651    655    657      1
   651    655    658      1
   656    655    657      1
   656    655    658      1
   657    655    658      1
   655    658    659      1
   655    658    660      1
   655    658    662      1
   659    658    660      1
   659    658    662      1
   660    658    662      1
   658    660    661      1
   658    662    663      1
   658    662    664      1
   658    662    672      1
   663    662    664      1
   663    662    672      1
   664    662    672      1
   662    664    665      1
   662    664    666      1
   665    664    666      1
   664    666    667      1
   664    666    671      1
   667    666    671      1
   666    667    668      1
   666    667    669      1
   666    667    670      1
   668    667    669      1
   668    667    670      1
   669    667    670      1
   662    672    673      1
   662    672    674      1
   662    672    675      1
   673    672    674      1
   673    672    675      1
   674    672    675      1
   651    674    672      1
   672    675    676      1
   672    675    677      1
   672    675    679      1
   676    675    677      1
   676    675    679      1
   677    675    679      1
   675    677    678      1
   675    679    680      1
   675    679    681      1
   675    679    686      1
   680    679    681      1
   680    679    686      1
   681    679    686      1
   679    681    682      1
   679    681    683      1
   679    681    684      1
   682    681    683      1
   682    681    684      1
   683    681    684      1
   681    684    685      1
   679    686    687      1
   686    687    688      1
   686    687    691      1
   686    687    713      1
   688    687    691      1
   688    687    713      1
   691    687    713      1
   687    688    689      1
   687    688    690      1
   689    688    690      1
   687    691    692      1
   687    691    693      1
   687    691    694      1
   692    691    693      1
   692    691    694      1
   693    691    694      1
   691    694    695      1
   691    694    696      1
   691    694    722      1
   695    694    696      1
   695    694    722      1
   696    694    722      1
   694    696    697      1
   694    696    698      1
   694    696    714      1
   697    696    698      1
   697    696    714      1
   698    696    714      1
   696    698    699      1
   696    698    700      1
   696    698    713      1
   699    698    700      1
   699    698    713      1
   700    698    713      1
   698    700    701      1
   698    700    702      1
   698    700    711      1
   701    700    702      1
   701    700    711      1
   702    700    711      1
   700    702    703      1
   700    702    704      1
   700    702    709      1
   703    702    704      1
   703    702    709      1
   704    702    709      1
   702    704    705      1
   702    704    706      1
   702    704    707      1
   705    704    706      1
   705    704    707      1
   706    704    707      1
   704    707    708      1
   702    709    710      1
   700    711    712      1
   687    713    698      1
   696    714    715      1
   696    714    716      1
   715    714    716      1
   714    716    717      1
   714    716    721      1
   717    716    721      1
   716    717    718      1
   716    717    719      1
   716    717    720      1
   718    717    719      1
   718    717    720      1
   719    717    720      1
   694    722    723      1

[ dihedrals ]
;   ai     aj     ak     al  funct
     1      2      3      4      9
     1      2      3      7      9
     1      2      3     26      9
     2      3      4      5      9
     2      3      4      6      9
     7      3      4      5      9
     7      3      4      6      9
    26      3      4      5      9
    26      3      4      6      9
     2      3      7      8      9
     2      3      7      9      9
     2      3      7     10      9
     4      3      7      8      9
     4      3      7      9      9
     4      3      7     10      9
    26      3      7      8      9
    26      3      7      9      9
    26      3      7     10      9
     2      3     26     24      9
     4      3     26     24      9
     7      3     26     24      9
     3      7     10     11      9
     3      7     10     12      9
     3      7     10     14      9
     8      7     10     11      9
     8      7     10     12      9
     8      7     10     14      9
     9      7     10     11      9
     9      7     10     12      9
     9      7     10     14      9
     7     10     12     13      9
    11     10     12     13      9
    14     10     12     13      9
     7     10     14     15      9
     7     10     14     16      9
     7     10     14     24      9
    11     10     14     15      9
    11     10     14     16      9
    11     10     14     24      9
    12     10     14     15      9
    12     10     14     16      9
    12     10     14     24      9
    10     14     16     17      9
    10     14     16     18      9
    15     14     16     17      9
    15     14     16     18      9
    24     14     16     17      9
    24     14     16     18      9
    10     14     24     25      9
    10     14     24     26      9
    10     14     24     27      9
    15     14     24     25      9
    15     14     24     26      9
    15     14     24     27      9
    16     14     24     25      9
    16     14     24     26      9
    16     14     24     27      9
    14     16     18     19      9
    14     16     18     23      9
    17     16     18     19      9
    17     16     18     23      9
    16     18     19     20      9
    16     18     19     21      9
    16     18     19     22      9
    23     18     19     20      9
    23     18     19     21      9
    23     18     19     22      9
    14     24     26      3      9
    25     24     26      3      9
    27     24     26      3      9
    14     24     27     28      9
    14     24     27     29      9
    14     24     27     31      9
    25     24     27     28      9
    25     24     27     29      9
    25     24     27     31      9
    26     24     27     28      9
    26     24     27     29      9
    26     24     27     31      9
    24     27     29     30      9
    28     27     29     30      9
    31     27     29     30      9
    24     27     31     32      9
    24     27     31     33      9
    24     27     31     38      9
    28     27     31     32      9
    28     27     31     33      9
    28     27     31     38      9
    29     27     31     32      9
    29     27     31     33      9
    29     27     31     38      9
    27     31     33     34      9
    27     31     33     35      9
    27     31     33     36      9
    32     31     33     34      9
    32     31     33     35      9
    32     31     33     36      9
    38     31     33     34      9
    38     31     33     35      9
    38     31     33     36      9
    27     31     38     39      9
    32     31     38     39      9
    33     31     38     39      9
    31     33     36     37      9
    34     33     36     37      9
    35     33     36     37      9
    31     38     39     40      9
    31     38     39     43      9
    31     38     39     62      9
    38     39     40     41      9
    38     39     40     42      9
    43     39     40     41      9
    43     39     40     42      9
    62     39     40     41      9
    62     39     40     42      9
    38     39     43     44      9
    38     39     43     45      9
    38     39     43     46      9
    40     39     43     44      9
    40     39     43     45      9
    40     39     43     46      9
    62     39     43     44      9
    62     39     43     45      9
    62     39     43     46      9
    38     39     62     60      9
    40     39     62     60      9
    43     39     62     60      9
    39     43     46     47      9
    39     43     46     48      9
    39     43     46     50      9
    44     43     46     47      9
    44     43     46     48      9
    44     43     46     50      9
    45     43     46     47      9
    45     43     46     48      9
    45     43     46     50      9
    43     46     48     49      9
    47     46     48     49      9
    50     46     48     49      9
    43     46     50     51      9
    43     46     50     52      9
    43     46     50     60      9
    47     46     50     51      9
    47     46     50     52      9
    47     46     50     60      9
    48     46     50     51      9
    48     46     50     52      9
    48     46     50     60      9
    46     50     52     53      9
    46     50     52     54      9
    51     50     52     53      9
    51     50     52     54      9
    60     50     52     53      9
    60     50     52     54      9
    46     50     60     61      9
    46     50     60     62      9
    46     50     60     63      9
    51     50     60     61      9
    51     50     60     62      9
    51     50     60     63      9
    52     50     60     61      9
    52     50     60     62      9
    52     50     60     63      9
    50     52     54     55      9
    50     52     54     59      9
    53     52     54     55      9
    53     52     54     59      9
    52     54     55     56      9
    52     54     55     57      9
    52     54     55     58      9
    59     54     55     56      9
    59     54     55     57      9
    59     54     55     58      9
    50     60     62     39      9
    61     60     62     39      9
    63     60     62     39      9
    50     60     63     64      9
    50     60     63     65      9
    50     60     63     67      9
    61     60     63     64      9
    61     60     63     65      9
    61     60     63     67      9
    62     60     63     64      9
    62     60     63     65      9
    62     60     63     67      9
    60     63     65     66      9
    64     63     65     66      9
    67     63     65     66      9
    60     63     67     68      9
    60     63     67     69      9
    60     63     67     74      9
    64     63     67     68      9
    64     63     67     69      9
    64     63     67     74      9
    65     63     67     68      9
    65     63     67     69      9
    65     63     67     74      9
    63     67     69     70      9
    63     67     69     71      9
    63     67     69     72      9
    68     67     69     70      9
    68     67     69     71      9
    68     67     69     72      9
    74     67     69     70      9
    74     67     69     71      9
    74     67     69     72      9
    63     67     74     75      9
    68     67     74     75      9
    69     67     74     75      9
    67     69     72     73      9
    70     69     72     73      9
    71     69     72     73      9
    67     74     75     76      9
    67     74     75     79      9
    67     74     75     98      9
    74     75     76     77      9
    74     75     76     78      9
    79     75     76     77      9
    79     75     76     78      9
    98     75     76     77      9
    98     75     76     78      9
    74     75     79     80      9
    74     75     79     81      9
    74     75     79     82      9
    76     75     79     80      9
    76     75     79     81      9
    76     75     79     82      9
    98     75     79     80      9
    98     75     79     81      9
    98     75     79     82      9
    74     75     98     96      9
    76     75     98     96      9
    79     75     98     96      9
    75     79     82     83      9
    75     79     82     84      9
    75     79     82     86      9
    80     79     82     83      9
    80     79     82     84      9
    80     79     82     86      9
    81     79     82     83      9
    81     79     82     84      9
    81     79     82     86      9
    79     82     84     85      9
    83     82     84     85      9
    86     82     84     85      9
    79     82     86     87      9
    79     82     86     88      9
    79     82     86     96      9
    83     82     86     87      9
    83     82     86     88      9
    83     82     86     96      9
    84     82     86     87      9
    84     82     86     88      9
    84     82     86     96      9
    82     86     88     89      9
    82     86     88     90      9
    87     86     88     89      9
    87     86     88     90      9
    96     86     88     89      9
    96     86     88     90      9
    82     86     96     97      9
    82     86     96     98      9
    82     86     96     99      9
    87     86     96     97      9
    87     86     96     98      9
    87     86     96     99      9
    88     86     96     97      9
    88     86     96     98      9
    88     86     96     99      9
    86     88     90     91      9
    86     88     90     95      9
    89     88     90     91      9
    89     88     90     95      9
    88     90     91     92      9
    88     90     91     93      9
    88     90     91     94      9
    95     90     91     92      9
    95     90     91     93      9
    95     90     91     94      9
    86     96     98     75      9
    97     96     98     75      9
    99     96     98     75      9
    86     96     99    100      9
    86     96     99    101      9
    86     96     99    103      9
    97     96     99    100      9
    97     96     99    101      9
    97     96     99    103      9
    98     96     99    100      9
    98     96     99    101      9
    98     96     99    103      9
    96     99    101    102      9
   100     99    101    102      9
   103     99    101    102      9
    96     99    103    104      9
    96     99    103    105      9
    96     99    103    110      9
   100     99    103    104      9
   100     99    103    105      9
   100     99    103    110      9
   101     99    103    104      9
   101     99    103    105      9
   101     99    103    110      9
    99    103    105    106      9
    99    103    105    107      9
    99    103    105    108      9
   104    103    105    106      9
   104    103    105    107      9
   104    103    105    108      9
   110    103    105    106      9
   110    103    105    107      9
   110    103    105    108      9
    99    103    110    111      9
   104    103    110    111      9
   105    103    110    111      9
   103    105    108    109      9
   106    105    108    109      9
   107    105    108    109      9
   103    110    111    112      9
   103    110    111    115      9
   103    110    111    134      9
   110    111    112    113      9
   110    111    112    114      9
   115    111    112    113      9
   115    111    112    114      9
   134    111    112    113      9
   134    111    112    114      9
   110    111    115    116      9
   110    111    115    117      9
   110    111    115    118      9
   112    111    115    116      9
   112    111    115    117      9
   112    111    115    118      9
   134    111    115    116      9
   134    111    115    117      9
   134    111    115    118      9
   110    111    134    132      9
   112    111    134    132      9
   115    111    134    132      9
   111    115    118    119      9
   111    115    118    120      9
   111    115    118    122      9
   116    115    118    119      9
   116    115    118    120      9
   116    115    118    122      9
   117    115    118    119      9
   117    115    118    120      9
   117    115    118    122      9
   115    118    120    121      9
   119    118    120    121      9
   122    118    120    121      9
   115    118    122    123      9
   115    118    122    124      9
   115    118    122    132      9
   119    118    122    123      9
   119    118    122    124      9
   119    118    122    132      9
   120    118    122    123      9
   120    118    122    124      9
   120    118    122    132      9
   118    122    124    125      9
   118    122    124    126      9
   123    122    124    125      9
   123    122    124    126      9
   132    122    124    125      9
   132    122    124    126      9
   118    122    132    133      9
   118    122    132    134      9
   118    122    132    135      9
   123    122    132    133      9
   123    122    132    134      9
   123    122    132    135      9
   124    122    132    133      9
   124    122    132    134      9
   124    122    132    135      9
   122    124    126    127      9
   122    124    126    131      9
   125    124    126    127      9
   125    124    126    131      9
   124    126    127    128      9
   124    126    127    129      9
   124    126    127    130      9
   131    126    127    128      9
   131    126    127    129      9
   131    126    127    130      9
   122    132    134    111      9
   133    132    134    111      9
   135    132    134    111      9
   122    132    135    136      9
   122    132    135    137      9
   122    132    135    139      9
   133    132    135    136      9
   133    132    135    137      9
   133    132    135    139      9
   134    132    135    136      9
   134    132    135    137      9
   134    132    135    139      9
   132    135    137    138      9
   136    135    137    138      9
   139    135    137    138      9
   132    135    139    140      9
   132    135    139    141      9
   132    135    139    146      9
   136    135    139    140      9
   136    135    139    141      9
   136    135    139    146      9
   137    135    139    140      9
   137    135    139    141      9
   137    135    139    146      9
   135    139    141    142      9
   135    139    141    143      9
   135    139    141    144      9
   140    139    141    142      9
   140    139    141    143      9
   140    139    141    144      9
   146    139    141    142      9
   146    139    141    143      9
   146    139    141    144      9
   135    139    146    147      9
   140    139    146    147      9
   141    139    146    147      9
   139    141    144    145      9
   142    141    144    145      9
   143    141    144    145      9
   139    146    147    148      9
   139    146    147    151      9
   139    146    147    170      9
   146    147    148    149      9
   146    147    148    150      9
   151    147    148    149      9
   151    147    148    150      9
   170    147    148    149      9
   170    147    148    150      9
   146    147    151    152      9
   146    147    151    153      9
   146    147    151    154      9
   148    147    151    152      9
   148    147    151    153      9
   148    147    151    154      9
   170    147    151    152      9
   170    147    151    153      9
   170    147    151    154      9
   146    147    170    168      9
   148    147    170    168      9
   151    147    170    168      9
   147    151    154    155      9
   147    151    154    156      9
   147    151    154    158      9
   152    151    154    155      9
   152    151    154    156      9
   152    151    154    158      9
   153    151    154    155      9
   153    151    154    156      9
   153    151    154    158      9
   151    154    156    157      9
   155    154    156    157      9
   158    154    156    157      9
   151    154    158    159      9
   151    154    158    160      9
   151    154    158    168      9
   155    154    158    159      9
   155    154    158    160      9
   155    154    158    168      9
   156    154    158    159      9
   156    154    158    160      9
   156    154    158    168      9
   154    158    160    161      9
   154    158    160    162      9
   159    158    160    161      9
   159    158    160    162      9
   168    158    160    161      9
   168    158    160    162      9
   154    158    168    169      9
   154    158    168    170      9
   154    158    168    171      9
   159    158    168    169      9
   159    158    168    170      9
   159    158    168    171      9
   160    158    168    169      9
   160    158    168    170      9
   160    158    168    171      9
   158    160    162    163      9
   158    160    162    167      9
   161    160    162    163      9
   161    160    162    167      9
   160    162    163    164      9
   160    162    163    165      9
   160    162    163    166      9
   167    162    163    164      9
   167    162    163    165      9
   167    162    163    166      9
   158    168    170    147      9
   169    168    170    147      9
   171    168    170    147      9
   158    168    171    172      9
   158    168    171    173      9
   158    168    171    175      9
   169    168    171    172      9
   169    168    171    173      9
   169    168    171    175      9
   170    168    171    172      9
   170    168    171    173      9
   170    168    171    175      9
   168    171    173    174      9
   172    171    173    174      9
   175    171    173    174      9
   168    171    175    176      9
   168    171    175    177      9
   168    171    175    182      9
   172    171    175    176      9
   172    171    175    177      9
   172    171    175    182      9
   173    171    175    176      9
   173    171    175    177      9
   173    171    175    182      9
   171    175    177    178      9
   171    175    177    179      9
   171    175    177    180      9
   176    175    177    178      9
   176    175    177    179      9
   176    175    177    180      9
   182    175    177    178      9
   182    175    177    179      9
   182    175    177    180      9
   171    175    182    183      9
   176    175    182    183      9
   177    175    182    183      9
   175    177    180    181      9
   178    177    180    181      9
   179    177    180    181      9
   175    182    183    184      9
   175    182    183    187      9
   175    182    183    206      9
   182    183    184    185      9
   182    183    184    186      9
   187    183    184    185      9
   187    183    184    186      9
   206    183    184    185      9
   206    183    184    186      9
   182    183    187    188      9
   182    183    187    189      9
   182    183    187    190      9
   184    183    187    188      9
   184    183    187    189      9
   184    183    187    190      9
   206    183    187    188      9
   206    183    187    189      9
   206    183    187    190      9
   182    183    206    204      9
   184    183    206    204      9
   187    183    206    204      9
   183    187    190    191      9
   183    187    190    192      9
   183    187    190    194      9
   188    187    190    191      9
   188    187    190    192      9
   188    187    190    194      9
   189    187    190    191      9
   189    187    190    192      9
   189    187    190    194      9
   187    190    192    193      9
   191    190    192    193      9
   194    190    192    193      9
   187    190    194    195      9
   187    190    194    196      9
   187    190    194    204      9
   191    190    194    195      9
   191    190    194    196      9
   191    190    194    204      9
   192    190    194    195      9
   192    190    194    196      9
   192    190    194    204      9
   190    194    196    197      9
   190    194    196    198      9
   195    194    196    197      9
   195    194    196    198      9
   204    194    196    197      9
   204    194    196    198      9
   190    194    204    205      9
   190    194    204    206      9
   190    194    204    207      9
   195    194    204    205      9
   195    194    204    206      9
   195    194    204    207      9
   196    194    204    205      9
   196    194    204    206      9
   196    194    204    207      9
   194    196    198    199      9
   194    196    198    203      9
   197    196    198    199      9
   197    196    198    203      9
   196    198    199    200      9
   196    198    199    201      9
   196    198    199    202      9
   203    198    199    200      9
   203    198    199    201      9
   203    198    199    202      9
   194    204    206    183      9
   205    204    206    183      9
   207    204    206    183      9
   194    204    207    208      9
   194    204    207    209      9
   194    204    207    211      9
   205    204    207    208      9
   205    204    207    209      9
   205    204    207    211      9
   206    204    207    208      9
   206    204    207    209      9
   206    204    207    211      9
   204    207    209    210      9
   208    207    209    210      9
   211    207    209    210      9
   204    207    211    212      9
   204    207    211    213      9
   204    207    211    218      9
   208    207    211    212      9
   208    207    211    213      9
   208    207    211    218      9
   209    207    211    212      9
   209    207    211    213      9
   209    207    211    218      9
   207    211    213    214      9
   207    211    213    215      9
   207    211    213    216      9
   212    211    213    214      9
   212    211    213    215      9
   212    211    213    216      9
   218    211    213    214      9
   218    211    213    215      9
   218    211    213    216      9
   207    211    218    219      9
   212    211    218    219      9
   213    211    218    219      9
   211    213    216    217      9
   214    213    216    217      9
   215    213    216    217      9
   211    218    219    220      9
   211    218    219    223      9
   211    218    219    242      9
   218    219    220    221      9
   218    219    220    222      9
   223    219    220    221      9
   223    219    220    222      9
   242    219    220    221      9
   242    219    220    222      9
   218    219    223    224      9
   218    219    223    225      9
   218    219    223    226      9
   220    219    223    224      9
   220    219    223    225      9
   220    219    223    226      9
   242    219    223    224      9
   242    219    223    225      9
   242    219    223    226      9
   218    219    242    240      9
   220    219    242    240      9
   223    219    242    240      9
   219    223    226    227      9
   219    223    226    228      9
   219    223    226    230      9
   224    223    226    227      9
   224    223    226    228      9
   224    223    226    230      9
   225    223    226    227      9
   225    223    226    228      9
   225    223    226    230      9
   223    226    228    229      9
   227    226    228    229      9
   230    226    228    229      9
   223    226    230    231      9
   223    226    230    232      9
   223    226    230    240      9
   227    226    230    231      9
   227    226    230    232      9
   227    226    230    240      9
   228    226    230    231      9
   228    226    230    232      9
   228    226    230    240      9
   226    230    232    233      9
   226    230    232    234      9
   231    230    232    233      9
   231    230    232    234      9
   240    230    232    233      9
   240    230    232    234      9
   226    230    240    241      9
   226    230    240    242      9
   226    230    240    243      9
   231    230    240    241      9
   231    230    240    242      9
   231    230    240    243      9
   232    230    240    241      9
   232    230    240    242      9
   232    230    240    243      9
   230    232    234    235      9
   230    232    234    239      9
   233    232    234    235      9
   233    232    234    239      9
   232    234    235    236      9
   232    234    235    237      9
   232    234    235    238      9
   239    234    235    236      9
   239    234    235    237      9
   239    234    235    238      9
   230    240    242    219      9
   241    240    242    219      9
   243    240    242    219      9
   230    240    243    244      9
   230    240    243    245      9
   230    240    243    247      9
   241    240    243    244      9
   241    240    243    245      9
   241    240    243    247      9
   242    240    243    244      9
   242    240    243    245      9
   242    240    243    247      9
   240    243    245    246      9
   244    243    245    246      9
   247    243    245    246      9
   240    243    247    248      9
   240    243    247    249      9
   240    243    247    254      9
   244    243    247    248      9
   244    243    247    249      9
   244    243    247    254      9
   245    243    247    248      9
   245    243    247    249      9
   245    243    247    254      9
   243    247    249    250      9
   243    247    249    251      9
   243    247    249    252      9
   248    247    249    250      9
   248    247    249    251      9
   248    247    249    252      9
   254    247    249    250      9
   254    247    249    251      9
   254    247    249    252      9
   243    247    254    255      9
   248    247    254    255      9
   249    247    254    255      9
   247    249    252    253      9
   250    249    252    253      9
   251    249    252    253      9
   247    254    255    256      9
   247    254    255    259      9
   247    254    255    278      9
   254    255    256    257      9
   254    255    256    258      9
   259    255    256    257      9
   259    255    256    258      9
   278    255    256    257      9
   278    255    256    258      9
   254    255    259    260      9
   254    255    259    261      9
   254    255    259    262      9
   256    255    259    260      9
   256    255    259    261      9
   256    255    259    262      9
   278    255    259    260      9
   278    255    259    261      9
   278    255    259    262      9
   254    255    278    276      9
   256    255    278    276      9
   259    255    278    276      9
   255    259    262    263      9
   255    259    262    264      9
   255    259    262    266      9
   260    259    262    263      9
   260    259    262    264      9
   260    259    262    266      9
   261    259    262    263      9
   261    259    262    264      9
   261    259    262    266      9
   259    262    264    265      9
   263    262    264    265      9
   266    262    264    265      9
   259    262    266    267      9
   259    262    266    268      9
   259    262    266    276      9
   263    262    266    267      9
   263    262    266    268      9
   263    262    266    276      9
   264    262    266    267      9
   264    262    266    268      9
   264    262    266    276      9
   262    266    268    269      9
   262    266    268    270      9
   267    266    268    269      9
   267    266    268    270      9
   276    266    268    269      9
   276    266    268    270      9
   262    266    276    277      9
   262    266    276    278      9
   262    266    276    279      9
   267    266    276    277      9
   267    266    276    278      9
   267    266    276    279      9
   268    266    276    277      9
   268    266    276    278      9
   268    266    276    279      9
   266    268    270    271      9
   266    268    270    275      9
   269    268    270    271      9
   269    268    270    275      9
   268    270    271    272      9
   268    270    271    273      9
   268    270    271    274      9
   275    270    271    272      9
   275    270    271    273      9
   275    270    271    274      9
   266    276    278    255      9
   277    276    278    255      9
   279    276    278    255      9
   266    276    279    280      9
   266    276    279    281      9
   266    276    279    283      9
   277    276    279    280      9
   277    276    279    281      9
   277    276    279    283      9
   278    276    279    280      9
   278    276    279    281      9
   278    276    279    283      9
   276    279    281    282      9
   280    279    281    282      9
   283    279    281    282      9
   276    279    283    284      9
   276    279    283    285      9
   276    279    283    290      9
   280    279    283    284      9
   280    279    283    285      9
   280    279    283    290      9
   281    279    283    284      9
   281    279    283    285      9
   281    279    283    290      9
   279    283    285    286      9
   279    283    285    287      9
   279    283    285    288      9
   284    283    285    286      9
   284    283    285    287      9
   284    283    285    288      9
   290    283    285    286      9
   290    283    285    287      9
   290    283    285    288      9
   279    283    290    291      9
   284    283    290    291      9
   285    283    290    291      9
   283    285    288    289      9
   286    285    288    289      9
   287    285    288    289      9
   283    290    291    292      9
   283    290    291    295      9
   283    290    291    314      9
   290    291    292    293      9
   290    291    292    294      9
   295    291    292    293      9
   295    291    292    294      9
   314    291    292    293      9
   314    291    292    294      9
   290    291    295    296      9
   290    291    295    297      9
   290    291    295    298      9
   292    291    295    296      9
   292    291    295    297      9
   292    291    295    298      9
   314    291    295    296      9
   314    291    295    297      9
   314    291    295    298      9
   290    291    314    312      9
   292    291    314    312      9
   295    291    314    312      9
   291    295    298    299      9
   291    295    298    300      9
   291    295    298    302      9
   296    295    298    299      9
   296    295    298    300      9
   296    295    298    302      9
   297    295    298    299      9
   297    295    298    300      9
   297    295    298    302      9
   295    298    300    301      9
   299    298    300    301      9
   302    298    300    301      9
   295    298    302    303      9
   295    298    302    304      9
   295    298    302    312      9
   299    298    302    303      9
   299    298    302    304      9
   299    298    302    312      9
   300    298    302    303      9
   300    298    302    304      9
   300    298    302    312      9
   298    302    304    305      9
   298    302    304    306      9
   303    302    304    305      9
   303    302    304    306      9
   312    302    304    305      9
   312    302    304    306      9
   298    302    312    313      9
   298    302    312    314      9
   298    302    312    315      9
   303    302    312    313      9
   303    302    312    314      9
   303    302    312    315      9
   304    302    312    313      9
   304    302    312    314      9
   304    302    312    315      9
   302    304    306    307      9
   302    304    306    311      9
   305    304    306    307      9
   305    304    306    311      9
   304    306    307    308      9
   304    306    307    309      9
   304    306    307    310      9
   311    306    307    308      9
   311    306    307    309      9
   311    306    307    310      9
   302    312    314    291      9
   313    312    314    291      9
   315    312    314    291      9
   302    312    315    316      9
   302    312    315    317      9
   302    312    315    319      9
   313    312    315    316      9
   313    312    315    317      9
   313    312    315    319      9
   314    312    315    316      9
   314    312    315    317      9
   314    312    315    319      9
   312    315    317    318      9
   316    315    317    318      9
   319    315    317    318      9
   312    315    319    320      9
   312    315    319    321      9
   312    315    319    326      9
   316    315    319    320      9
   316    315    319    321      9
   316    315    319    326      9
   317    315    319    320      9
   317    315    319    321      9
   317    315    319    326      9
   315    319    321    322      9
   315    319    321    323      9
   315    319    321    324      9
   320    319    321    322      9
   320    319    321    323      9
   320    319    321    324      9
   326    319    321    322      9
   326    319    321    323      9
   326    319    321    324      9
   315    319    326    327      9
   320    319    326    327      9
   321    319    326    327      9
   319    321    324    325      9
   322    321    324    325      9
   323    321    324    325      9
   319    326    327    328      9
   319    326    327    331      9
   319    326    327    350      9
   326    327    328    329      9
   326    327    328    330      9
   331    327    328    329      9
   331    327    328    330      9
   350    327    328    329      9
   350    327    328    330      9
   326    327    331    332      9
   326    327    331    333      9
   326    327    331    334      9
   328    327    331    332      9
   328    327    331    333      9
   328    327    331    334      9
   350    327    331    332      9
   350    327    331    333      9
   350    327    331    334      9
   326    327    350    348      9
   328    327    350    348      9
   331    327    350    348      9
   327    331    334    335      9
   327    331    334    336      9
   327    331    334    338      9
   332    331    334    335      9
   332    331    334    336      9
   332    331    334    338      9
   333    331    334    335      9
   333    331    334    336      9
   333    331    334    338      9
   331    334    336    337      9
   335    334    336    337      9
   338    334    336    337      9
   331    334    338    339      9
   331    334    338    340      9
   331    334    338    348      9
   335    334    338    339      9
   335    334    338    340      9
   335    334    338    348      9
   336    334    338    339      9
   336    334    338    340      9
   336    334    338    348      9
   334    338    340    341      9
   334    338    340    342      9
   339    338    340    341      9
   339    338    340    342      9
   348    338    340    341      9
   348    338    340    342      9
   334    338    348    349      9
   334    338    348    350      9
   334    338    348    351      9
   339    338    348    349      9
   339    338    348    350      9
   339    338    348    351      9
   340    338    348    349      9
   340    338    348    350      9
   340    338    348    351      9
   338    340    342    343      9
   338    340    342    347      9
   341    340    342    343      9
   341    340    342    347      9
   340    342    343    344      9
   340    342    343    345      9
   340    342    343    346      9
   347    342    343    344      9
   347    342    343    345      9
   347    342    343    346      9
   338    348    350    327      9
   349    348    350    327      9
   351    348    350    327      9
   338    348    351    352      9
   338    348    351    353      9
   338    348    351    355      9
   349    348    351    352      9
   349    348    351    353      9
   349    348    351    355      9
   350    348    351    352      9
   350    348    351    353      9
   350    348    351    355      9
   348    351    353    354      9
   352    351    353    354      9
   355    351    353    354      9
   348    351    355    356      9
   348    351    355    357      9
   348    351    355    362      9
   352    351    355    356      9
   352    351    355    357      9
   352    351    355    362      9
   353    351    355    356      9
   353    351    355    357      9
   353    351    355    362      9
   351    355    357    358      9
   351    355    357    359      9
   351    355    357    360      9
   356    355    357    358      9
   356    355    357    359      9
   356    355    357    360      9
   362    355    357    358      9
   362    355    357    359      9
   362    355    357    360      9
   351    355    362    363      9
   356    355    362    363      9
   357    355    362    363      9
   355    357    360    361      9
   358    357    360    361      9
   359    357    360    361      9
   355    362    363    364      9
   355    362    363    367      9
   355    362    363    386      9
   362    363    364    365      9
   362    363    364    366      9
   367    363    364    365      9
   367    363    364    366      9
   386    363    364    365      9
   386    363    364    366      9
   362    363    367    368      9
   362    363    367    369      9
   362    363    367    370      9
   364    363    367    368      9
   364    363    367    369      9
   364    363    367    370      9
   386    363    367    368      9
   386    363    367    369      9
   386    363    367    370      9
   362    363    386    384      9
   364    363    386    384      9
   367    363    386    384      9
   363    367    370    371      9
   363    367    370    372      9
   363    367    370    374      9
   368    367    370    371      9
   368    367    370    372      9
   368    367    370    374      9
   369    367    370    371      9
   369    367    370    372      9
   369    367    370    374      9
   367    370    372    373      9
   371    370    372    373      9
   374    370    372    373      9
   367    370    374    375      9
   367    370    374    376      9
   367    370    374    384      9
   371    370    374    375      9
   371    370    374    376      9
   371    370    374    384      9
   372    370    374    375      9
   372    370    374    376      9
   372    370    374    384      9
   370    374    376    377      9
   370    374    376    378      9
   375    374    376    377      9
   375    374    376    378      9
   384    374    376    377      9
   384    374    376    378      9
   370    374    384    385      9
   370    374    384    386      9
   370    374    384    387      9
   375    374    384    385      9
   375    374    384    386      9
   375    374    384    387      9
   376    374    384    385      9
   376    374    384    386      9
   376    374    384    387      9
   374    376    378    379      9
   374    376    378    383      9
   377    376    378    379      9
   377    376    378    383      9
   376    378    379    380      9
   376    378    379    381      9
   376    378    379    382      9
   383    378    379    380      9
   383    378    379    381      9
   383    378    379    382      9
   374    384    386    363      9
   385    384    386    363      9
   387    384    386    363      9
   374    384    387    388      9
   374    384    387    389      9
   374    384    387    391      9
   385    384    387    388      9
   385    384    387    389      9
   385    384    387    391      9
   386    384    387    388      9
   386    384    387    389      9
   386    384    387    391      9
   384    387    389    390      9
   388    387    389    390      9
   391    387    389    390      9
   384    387    391    392      9
   384    387    391    393      9
   384    387    391    398      9
   388    387    391    392      9
   388    387    391    393      9
   388    387    391    398      9
   389    387    391    392      9
   389    387    391    393      9
   389    387    391    398      9
   387    391    393    394      9
   387    391    393    395      9
   387    391    393    396      9
   392    391    393    394      9
   392    391    393    395      9
   392    391    393    396      9
   398    391    393    394      9
   398    391    393    395      9
   398    391    393    396      9
   387    391    398    399      9
   392    391    398    399      9
   393    391    398    399      9
   391    393    396    397      9
   394    393    396    397      9
   395    393    396    397      9
   391    398    399    400      9
   391    398    399    403      9
   391    398    399    422      9
   398    399    400    401      9
   398    399    400    402      9
   403    399    400    401      9
   403    399    400    402      9
   422    399    400    401      9
   422    399    400    402      9
   398    399    403    404      9
   398    399    403    405      9
   398    399    403    406      9
   400    399    403    404      9
   400    399    403    405      9
   400    399    403    406      9
   422    399    403    404      9
   422    399    403    405      9
   422    399    403    406      9
   398    399    422    420      9
   400    399    422    420      9
   403    399    422    420      9
   399    403    406    407      9
   399    403    406    408      9
   399    403    406    410      9
   404    403    406    407      9
   404    403    406    408      9
   404    403    406    410      9
   405    403    406    407      9
   405    403    406    408      9
   405    403    406    410      9
   403    406    408    409      9
   407    406    408    409      9
   410    406    408    409      9
   403    406    410    411      9
   403    406    410    412      9
   403    406    410    420      9
   407    406    410    411      9
   407    406    410    412      9
   407    406    410    420      9
   408    406    410    411      9
   408    406    410    412      9
   408    406    410    420      9
   406    410    412    413      9
   406    410    412    414      9
   411    410    412    413      9
   411    410    412    414      9
   420    410    412    413      9
   420    410    412    414      9
   406    410    420    421      9
   406    410    420    422      9
   406    410    420    423      9
   411    410    420    421      9
   411    410    420    422      9
   411    410    420    423      9
   412    410    420    421      9
   412    410    420    422      9
   412    410    420    423      9
   410    412    414    415      9
   410    412    414    419      9
   413    412    414    415      9
   413    412    414    419      9
   412    414    415    416      9
   412    414    415    417      9
   412    414    415    418      9
   419    414    415    416      9
   419    414    415    417      9
   419    414    415    418      9
   410    420    422    399      9
   421    420    422    399      9
   423    420    422    399      9
   410    420    423    424      9
   410    420    423    425      9
   410    420    423    427      9
   421    420    423    424      9
   421    420    423    425      9
   421    420    423    427      9
   422    420    423    424      9
   422    420    423    425      9
   422    420    423    427      9
   420    423    425    426      9
   424    423    425    426      9
   427    423    425    426      9
   420    423    427    428      9
   420    423    427    429      9
   420    423    427    434      9
   424    423    427    428      9
   424    423    427    429      9
   424    423    427    434      9
   425    423    427    428      9
   425    423    427    429      9
   425    423    427    434      9
   423    427    429    430      9
   423    427    429    431      9
   423    427    429    432      9
   428    427    429    430      9
   428    427    429    431      9
   428    427    429    432      9
   434    427    429    430      9
   434    427    429    431      9
   434    427    429    432      9
   423    427    434    435      9
   428    427    434    435      9
   429    427    434    435      9
   427    429    432    433      9
   430    429    432    433      9
   431    429    432    433      9
   427    434    435    436      9
   427    434    435    439      9
   427    434    435    458      9
   434    435    436    437      9
   434    435    436    438      9
   439    435    436    437      9
   439    435    436    438      9
   458    435    436    437      9
   458    435    436    438      9
   434    435    439    440      9
   434    435    439    441      9
   434    435    439    442      9
   436    435    439    440      9
   436    435    439    441      9
   436    435    439    442      9
   458    435    439    440      9
   458    435    439    441      9
   458    435    439    442      9
   434    435    458    456      9
   436    435    458    456      9
   439    435    458    456      9
   435    439    442    443      9
   435    439    442    444      9
   435    439    442    446      9
   440    439    442    443      9
   440    439    442    444      9
   440    439    442    446      9
   441    439    442    443      9
   441    439    442    444      9
   441    439    442    446      9
   439    442    444    445      9
   443    442    444    445      9
   446    442    444    445      9
   439    442    446    447      9
   439    442    446    448      9
   439    442    446    456      9
   443    442    446    447      9
   443    442    446    448      9
   443    442    446    456      9
   444    442    446    447      9
   444    442    446    448      9
   444    442    446    456      9
   442    446    448    449      9
   442    446    448    450      9
   447    446    448    449      9
   447    446    448    450      9
   456    446    448    449      9
   456    446    448    450      9
   442    446    456    457      9
   442    446    456    458      9
   442    446    456    459      9
   447    446    456    457      9
   447    446    456    458      9
   447    446    456    459      9
   448    446    456    457      9
   448    446    456    458      9
   448    446    456    459      9
   446    448    450    451      9
   446    448    450    455      9
   449    448    450    451      9
   449    448    450    455      9
   448    450    451    452      9
   448    450    451    453      9
   448    450    451    454      9
   455    450    451    452      9
   455    450    451    453      9
   455    450    451    454      9
   446    456    458    435      9
   457    456    458    435      9
   459    456    458    435      9
   446    456    459    460      9
   446    456    459    461      9
   446    456    459    463      9
   457    456    459    460      9
   457    456    459    461      9
   457    456    459    463      9
   458    456    459    460      9
   458    456    459    461      9
   458    456    459    463      9
   456    459    461    462      9
   460    459    461    462      9
   463    459    461    462      9
   456    459    463    464      9
   456    459    463    465      9
   456    459    463    470      9
   460    459    463    464      9
   460    459    463    465      9
   460    459    463    470      9
   461    459    463    464      9
   461    459    463    465      9
   461    459    463    470      9
   459    463    465    466      9
   459    463    465    467      9
   459    463    465    468      9
   464    463    465    466      9
   464    463    465    467      9
   464    463    465    468      9
   470    463    465    466      9
   470    463    465    467      9
   470    463    465    468      9
   459    463    470    471      9
   464    463    470    471      9
   465    463    470    471      9
   463    465    468    469      9
   466    465    468    469      9
   467    465    468    469      9
   463    470    471    472      9
   463    470    471    475      9
   463    470    471    494      9
   470    471    472    473      9
   470    471    472    474      9
   475    471    472    473      9
   475    471    472    474      9
   494    471    472    473      9
   494    471    472    474      9
   470    471    475    476      9
   470    471    475    477      9
   470    471    475    478      9
   472    471    475    476      9
   472    471    475    477      9
   472    471    475    478      9
   494    471    475    476      9
   494    471    475    477      9
   494    471    475    478      9
   470    471    494    492      9
   472    471    494    492      9
   475    471    494    492      9
   471    475    478    479      9
   471    475    478    480      9
   471    475    478    482      9
   476    475    478    479      9
   476    475    478    480      9
   476    475    478    482      9
   477    475    478    479      9
   477    475    478    480      9
   477    475    478    482      9
   475    478    480    481      9
   479    478    480    481      9
   482    478    480    481      9
   475    478    482    483      9
   475    478    482    484      9
   475    478    482    492      9
   479    478    482    483      9
   479    478    482    484      9
   479    478    482    492      9
   480    478    482    483      9
   480    478    482    484      9
   480    478    482    492      9
   478    482    484    485      9
   478    482    484    486      9
   483    482    484    485      9
   483    482    484    486      9
   492    482    484    485      9
   492    482    484    486      9
   478    482    492    493      9
   478    482    492    494      9
   478    482    492    495      9
   483    482    492    493      9
   483    482    492    494      9
   483    482    492    495      9
   484    482    492    493      9
   484    482    492    494      9
   484    482    492    495      9
   482    484    486    487      9
   482    484    486    491      9
   485    484    486    487      9
   485    484    486    491      9
   484    486    487    488      9
   484    486    487    489      9
   484    486    487    490      9
   491    486    487    488      9
   491    486    487    489      9
   491    486    487    490      9
   482    492    494    471      9
   493    492    494    471      9
   495    492    494    471      9
   482    492    495    496      9
   482    492    495    497      9
   482    492    495    499      9
   493    492    495    496      9
   493    492    495    497      9
   493    492    495    499      9
   494    492    495    496      9
   494    492    495    497      9
   494    492    495    499      9
   492    495    497    498      9
   496    495    497    498      9
   499    495    497    498      9
   492    495    499    500      9
   492    495    499    501      9
   492    495    499    506      9
   496    495    499    500      9
   496    495    499    501      9
   496    495    499    506      9
   497    495    499    500      9
   497    495    499    501      9
   497    495    499    506      9
   495    499    501    502      9
   495    499    501    503      9
   495    499    501    504      9
   500    499    501    502      9
   500    499    501    503      9
   500    499    501    504      9
   506    499    501    502      9
   506    499    501    503      9
   506    499    501    504      9
   495    499    506    507      9
   500    499    506    507      9
   501    499    506    507      9
   499    501    504    505      9
   502    501    504    505      9
   503    501    504    505      9
   499    506    507    508      9
   499    506    507    511      9
   499    506    507    530      9
   506    507    508    509      9
   506    507    508    510      9
   511    507    508    509      9
   511    507    508    510      9
   530    507    508    509      9
   530    507    508    510      9
   506    507    511    512      9
   506    507    511    513      9
   506    507    511    514      9
   508    507    511    512      9
   508    507    511    513      9
   508    507    511    514      9
   530    507    511    512      9
   530    507    511    513      9
   530    507    511    514      9
   506    507    530    528      9
   508    507    530    528      9
   511    507    530    528      9
   507    511    514    515      9
   507    511    514    516      9
   507    511    514    518      9
   512    511    514    515      9
   512    511    514    516      9
   512    511    514    518      9
   513    511    514    515      9
   513    511    514    516      9
   513    511    514    518      9
   511    514    516    517      9
   515    514    516    517      9
   518    514    516    517      9
   511    514    518    519      9
   511    514    518    520      9
   511    514    518    528      9
   515    514    518    519      9
   515    514    518    520      9
   515    514    518    528      9
   516    514    518    519      9
   516    514    518    520      9
   516    514    518    528      9
   514    518    520    521      9
   514    518    520    522      9
   519    518    520    521      9
   519    518    520    522      9
   528    518    520    521      9
   528    518    520    522      9
   514    518    528    529      9
   514    518    528    530      9
   514    518    528    531      9
   519    518    528    529      9
   519    518    528    530      9
   519    518    528    531      9
   520    518    528    529      9
   520    518    528    530      9
   520    518    528    531      9
   518    520    522    523      9
   518    520    522    527      9
   521    520    522    523      9
   521    520    522    527      9
   520    522    523    524      9
   520    522    523    525      9
   520    522    523    526      9
   527    522    523    524      9
   527    522    523    525      9
   527    522    523    526      9
   518    528    530    507      9
   529    528    530    507      9
   531    528    530    507      9
   518    528    531    532      9
   518    528    531    533      9
   518    528    531    535      9
   529    528    531    532      9
   529    528    531    533      9
   529    528    531    535      9
   530    528    531    532      9
   530    528    531    533      9
   530    528    531    535      9
   528    531    533    534      9
   532    531    533    534      9
   535    531    533    534      9
   528    531    535    536      9
   528    531    535    537      9
   528    531    535    542      9
   532    531    535    536      9
   532    531    535    537      9
   532    531    535    542      9
   533    531    535    536      9
   533    531    535    537      9
   533    531    535    542      9
   531    535    537    538      9
   531    535    537    539      9
   531    535    537    540      9
   536    535    537    538      9
   536    535    537    539      9
   536    535    537    540      9
   542    535    537    538      9
   542    535    537    539      9
   542    535    537    540      9
   531    535    542    543      9
   536    535    542    543      9
   537    535    542    543      9
   535    537    540    541      9
   538    537    540    541      9
   539    537    540    541      9
   535    542    543    544      9
   535    542    543    547      9
   535    542    543    566      9
   542    543    544    545      9
   542    543    544    546      9
   547    543    544    545      9
   547    543    544    546      9
   566    543    544    545      9
   566    543    544    546      9
   542    543    547    548      9
   542    543    547    549      9
   542    543    547    550      9
   544    543    547    548      9
   544    543    547    549      9
   544    543    547    550      9
   566    543    547    548      9
   566    543    547    549      9
   566    543    547    550      9
   542    543    566    564      9
   544    543    566    564      9
   547    543    566    564      9
   543    547    550    551      9
   543    547    550    552      9
   543    547    550    554      9
   548    547    550    551      9
   548    547    550    552      9
   548    547    550    554      9
   549    547    550    551      9
   549    547    550    552      9
   549    547    550    554      9
   547    550    552    553      9
   551    550    552    553      9
   554    550    552    553      9
   547    550    554    555      9
   547    550    554    556      9
   547    550    554    564      9
   551    550    554    555      9
   551    550    554    556      9
   551    550    554    564      9
   552    550    554    555      9
   552    550    554    556      9
   552    550    554    564      9
   550    554    556    557      9
   550    554    556    558      9
   555    554    556    557      9
   555    554    556    558      9
   564    554    556    557      9
   564    554    556    558      9
   550    554    564    565      9
   550    554    564    566      9
   550    554    564    567      9
   555    554    564    565      9
   555    554    564    566      9
   555    554    564    567      9
   556    554    564    565      9
   556    554    564    566      9
   556    554    564    567      9
   554    556    558    559      9
   554    556    558    563      9
   557    556    558    559      9
   557    556    558    563      9
   556    558    559    560      9
   556    558    559    561      9
   556    558    559    562      9
   563    558    559    560      9
   563    558    559    561      9
   563    558    559    562      9
   554    564    566    543      9
   565    564    566    543      9
   567    564    566    543      9
   554    564    567    568      9
   554    564    567    569      9
   554    564    567    571      9
   565    564    567    568      9
   565    564    567    569      9
   565    564    567    571      9
   566    564    567    568      9
   566    564    567    569      9
   566    564    567    571      9
   564    567    569    570      9
   568    567    569    570      9
   571    567    569    570      9
   564    567    571    572      9
   564    567    571    573      9
   564    567    571    578      9
   568    567    571    572      9
   568    567    571    573      9
   568    567    571    578      9
   569    567    571    572      9
   569    567    571    573      9
   569    567    571    578      9
   567    571    573    574      9
   567    571    573    575      9
   567    571    573    576      9
   572    571    573    574      9
   572    571    573    575      9
   572    571    573    576      9
   578    571    573    574      9
   578    571    573    575      9
   578    571    573    576      9
   567    571    578    579      9
   572    571    578    579      9
   573    571    578    579      9
   571    573    576    577      9
   574    573    576    577      9
   575    573    576    577      9
   571    578    579    580      9
   571    578    579    583      9
   571    578    579    602      9
   578    579    580    581      9
   578    579    580    582      9
   583    579    580    581      9
   583    579    580    582      9
   602    579    580    581      9
   602    579    580    582      9
   578    579    583    584      9
   578    579    583    585      9
   578    579    583    586      9
   580    579    583    584      9
   580    579    583    585      9
   580    579    583    586      9
   602    579    583    584      9
   602    579    583    585      9
   602    579    583    586      9
   578    579    602    600      9
   580    579    602    600      9
   583    579    602    600      9
   579    583    586    587      9
   579    583    586    588      9
   579    583    586    590      9
   584    583    586    587      9
   584    583    586    588      9
   584    583    586    590      9
   585    583    586    587      9
   585    583    586    588      9
   585    583    586    590      9
   583    586    588    589      9
   587    586    588    589      9
   590    586    588    589      9
   583    586    590    591      9
   583    586    590    592      9
   583    586    590    600      9
   587    586    590    591      9
   587    586    590    592      9
   587    586    590    600      9
   588    586    590    591      9
   588    586    590    592      9
   588    586    590    600      9
   586    590    592    593      9
   586    590    592    594      9
   591    590    592    593      9
   591    590    592    594      9
   600    590    592    593      9
   600    590    592    594      9
   586    590    600    601      9
   586    590    600    602      9
   586    590    600    603      9
   591    590    600    601      9
   591    590    600    602      9
   591    590    600    603      9
   592    590    600    601      9
   592    590    600    602      9
   592    590    600    603      9
   590    592    594    595      9
   590    592    594    599      9
   593    592    594    595      9
   593    592    594    599      9
   592    594    595    596      9
   592    594    595    597      9
   592    594    595    598      9
   599    594    595    596      9
   599    594    595    597      9
   599    594    595    598      9
   590    600    602    579      9
   601    600    602    579      9
   603    600    602    579      9
   590    600    603    604      9
   590    600    603    605      9
   590    600    603    607      9
   601    600    603    604      9
   601    600    603    605      9
   601    600    603    607      9
   602    600    603    604      9
   602    600    603    605      9
   602    600    603    607      9
   600    603    605    606      9
   604    603    605    606      9
   607    603    605    606      9
   600    603    607    608      9
   600    603    607    609      9
   600    603    607    614      9
   604    603    607    608      9
   604    603    607    609      9
   604    603    607    614      9
   605    603    607    608      9
   605    603    607    609      9
   605    603    607    614      9
   603    607    609    610      9
   603    607    609    611      9
   603    607    609    612      9
   608    607    609    610      9
   608    607    609    611      9
   608    607    609    612      9
   614    607    609    610      9
   614    607    609    611      9
   614    607    609    612      9
   603    607    614    615      9
   608    607    614    615      9
   609    607    614    615      9
   607    609    612    613      9
   610    609    612    613      9
   611    609    612    613      9
   607    614    615    616      9
   607    614    615    619      9
   607    614    615    638      9
   614    615    616    617      9
   614    615    616    618      9
   619    615    616    617      9
   619    615    616    618      9
   638    615    616    617      9
   638    615    616    618      9
   614    615    619    620      9
   614    615    619    621      9
   614    615    619    622      9
   616    615    619    620      9
   616    615    619    621      9
   616    615    619    622      9
   638    615    619    620      9
   638    615    619    621      9
   638    615    619    622      9
   614    615    638    636      9
   616    615    638    636      9
   619    615    638    636      9
   615    619    622    623      9
   615    619    622    624      9
   615    619    622    626      9
   620    619    622    623      9
   620    619    622    624      9
   620    619    622    626      9
   621    619    622    623      9
   621    619    622    624      9
   621    619    622    626      9
   619    622    624    625      9
   623    622    624    625      9
   626    622    624    625      9
   619    622    626    627      9
   619    622    626    628      9
   619    622    626    636      9
   623    622    626    627      9
   623    622    626    628      9
   623    622    626    636      9
   624    622    626    627      9
   624    622    626    628      9
   624    622    626    636      9
   622    626    628    629      9
   622    626    628    630      9
   627    626    628    629      9
   627    626    628    630      9
   636    626    628    629      9
   636    626    628    630      9
   622    626    636    637      9
   622    626    636    638      9
   622    626    636    639      9
   627    626    636    637      9
   627    626    636    638      9
   627    626    636    639      9
   628    626    636    637      9
   628    626    636    638      9
   628    626    636    639      9
   626    628    630    631      9
   626    628    630    635      9
   629    628    630    631      9
   629    628    630    635      9
   628    630    631    632      9
   628    630    631    633      9
   628    630    631    634      9
   635    630    631    632      9
   635    630    631    633      9
   635    630    631    634      9
   626    636    638    615      9
   637    636    638    615      9
   639    636    638    615      9
   626    636    639    640      9
   626    636    639    641      9
   626    636    639    643      9
   637    636    639    640      9
   637    636    639    641      9
   637    636    639    643      9
   638    636    639    640      9
   638    636    639    641      9
   638    636    639    643      9
   636    639    641    642      9
   640    639    641    642      9
   643    639    641    642      9
   636    639    643    644      9
   636    639    643    645      9
   636    639    643    650      9
   640    639    643    644      9
   640    639    643    645      9
   640    639    643    650      9
   641    639    643    644      9
   641    639    643    645      9
   641    639    643    650      9
   639    643    645    646      9
   639    643    645    647      9
   639    643    645    648      9
   644    643    645    646      9
   644    643    645    647      9
   644    643    645    648      9
   650    643    645    646      9
   650    643    645    647      9
   650    643    645    648      9
   639    643    650    651      9
   644    643    650    651      9
   645    643    650    651      9
   643    645    648    649      9
   646    645    648    649      9
   647    645    648    649      9
   643    650    651    652      9
   643    650    651    655      9
   643    650    651    674      9
   650    651    652    653      9
   650    651    652    654      9
   655    651    652    653      9
   655    651    652    654      9
   674    651    652    653      9
   674    651    652    654      9
   650    651    655    656      9
   650    651    655    657      9
   650    651    655    658      9
   652    651    655    656      9
   652    651    655    657      9
   652    651    655    658      9
   674    651    655    656      9
   674    651    655    657      9
   674    651    655    658      9
   650    651    674    672      9
   652    651    674    672      9
   655    651    674    672      9
   651    655    658    659      9
   651    655    658    660      9
   651    655    658    662      9
   656    655    658    659      9
   656    655    658    660      9
   656    655    658    662      9
   657    655    658    659      9
   657    655    658    660      9
   657    655    658    662      9
   655    658    660    661      9
   659    658    660    661      9
   662    658    660    661      9
   655    658    662    663      9
   655    658    662    664      9
   655    658    662    672      9
   659    658    662    663      9
   659    658    662    664      9
   659    658    662    672      9
   660    658    662    663      9
   660    658    662    664      9
   660    658    662    672      9
   658    662    664    665      9
   658    662    664    666      9
   663    662    664    665      9
   663    662    664    666      9
   672    662    664    665      9
   672    662    664    666      9
   658    662    672    673      9
   658    662    672    674      9
   658    662    672    675      9
   663    662    672    673      9
   663    662    672    674      9
   663    662    672    675      9
   664    662    672    673      9
   664    662    672    674      9
   664    662    672    675      9
   662    664    666    667      9
   662    664    666    671      9
   665    664    666    667      9
   665    664    666    671      9
   664    666    667    668      9
   664    666    667    669      9
   664    666    667    670      9
   671    666    667    668      9
   671    666    667    669      9
   671    666    667    670      9
   662    672    674    651      9
   673    672    674    651      9
   675    672    674    651      9
   662    672    675    676      9
   662    672    675    677      9
   662    672    675    679      9
   673    672    675    676      9
   673    672    675    677      9
   673    672    675    679      9
   674    672    675    676      9
   674    672    675    677      9
   674    672    675    679      9
   672    675    677    678      9
   676    675    677    678      9
   679    675    677    678      9
   672    675    679    680      9
   672    675    679    681      9
   672    675    679    686      9
   676    675    679    680      9
   676    675    679    681      9
   676    675    679    686      9
   677    675    679    680      9
   677    675    679    681      9
   677    675    679    686      9
   675    679    681    682      9
   675    679    681    683      9
   675    679    681    684      9
   680    679    681    682      9
   680    679    681    683      9
   680    679    681    684      9
   686    679    681    682      9
   686    679    681    683      9
   686    679    681    684      9
   675    679    686    687      9
   680    679    686    687      9
   681    679    686    687      9
   679    681    684    685      9
   682    681    684    685      9
   683    681    684    685      9
   679    686    687    688      9
   679    686    687    691      9
   679    686    687    713      9
   686    687    688    689      9
   686    687    688    690      9
   691    687    688    689      9
   691    687    688    690      9
   713    687    688    689      9
   713    687    688    690      9
   686    687    691    692      9
   686    687    691    693      9
   686    687    691    694      9
   688    687    691    692      9
   688    687    691    693      9
   688    687    691    694      9
   713    687    691    692      9
   713    687    691    693      9
   713    687    691    694      9
   686    687    713    698      9
   688    687    713    698      9
   691    687    713    698      9
   687    691    694    695      9
   687    691    694    696      9
   687    691    694    722      9
   692    691    694    695      9
   692    691    694    696      9
   692    691    694    722      9
   693    691    694    695      9
   693    691    694    696      9
   693    691    694    722      9
   691    694    696    697      9
   691    694    696    698      9
   691    694    696    714      9
   695    694    696    697      9
   695    694    696    698      9
   695    694    696    714      9
   722    694    696    697      9
   722    694    696    698      9
   722    694    696    714      9
   691    694    722    723      9
   695    694    722    723      9
   696    694    722    723      9
   694    696    698    699      9
   694    696    698    700      9
   694    696    698    713      9
   697    696    698    699      9
   697    696    698    700      9
   697    696    698    713      9
   714    696    698    699      9
   714    696    698    700      9
   714    696    698    713      9
   694    696    714    715      9
   694    696    714    716      9
   697    696    714    715      9
   697    696    714    716      9
   698    696    714    715      9
   698    696    714    716      9
   696    698    700    701      9
   696    698    700    702      9
   696    698    700    711      9
   699    698    700    701      9
   699    698    700    702      9
   699    698    700    711      9
   713    698    700    701      9
   713    698    700    702      9
   713    698    700    711      9
   696    698    713    687      9
   699    698    713    687      9
   700    698    713    687      9
   698    700    702    703      9
   698    700    702    704      9
   698    700    702    709      9
   701    700    702    703      9
   701    700    702    704      9
   701    700    702    709      9
   711    700    702    703      9
   711    700    702    704      9
   711    700    702    709      9
   698    700    711    712      9
   701    700    711    712      9
   702    700    711    712      9
   700    702    704    705      9
   700    702    704    706      9
   700    702    704    707      9
   703    702    704    705      9
   703    702    704    706      9
   703    702    704    707      9
   709    702    704    705      9
   709    702    704    706      9
   709    702    704    707      9
   700    702    709    710      9
   703    702    709    710      9
   704    702    709    710      9
   702    704    707    708      9
   705    704    707    708      9
   706    704    707    708      9
   696    714    716    717      9
   696    714    716    721      9
   715    714    716    717      9
   715    714    716    721      9
   714    716    717    718      9
   714    716    717    719      9
   714    716    717    720      9
   721    716    717    718      9
   721    716    717    719      9
   721    716    717    720      9

[ dihedrals ]
;   ai     aj     ak     al  funct
     3      5      4      6      4
    18     17     16     14      4
    19     16     18     23      4
    39     41     40     42      4
    54     53     52     50      4
    55     52     54     59      4
    75     77     76     78      4
    90     89     88     86      4
    91     88     90     95      4
   111    113    112    114      4
   126    125    124    122      4
   127    124    126    131      4
   147    149    148    150      4
   162    161    160    158      4
   163    160    162    167      4
   183    185    184    186      4
   198    197    196    194      4
   199    196    198    203      4
   219    221    220    222      4
   234    233    232    230      4
   235    232    234    239      4
   255    257    256    258      4
   270    269    268    266      4
   271    268    270    275      4
   291    293    292    294      4
   306    305    304    302      4
   307    304    306    311      4
   327    329    328    330      4
   342    341    340    338      4
   343    340    342    347      4
   363    365    364    366      4
   378    377    376    374      4
   379    376    378    383      4
   399    401    400    402      4
   414    413    412    410      4
   415    412    414    419      4
   435    437    436    438      4
   450    449    448    446      4
   451    448    450    455      4
   471    473    472    474      4
   486    485    484    482      4
   487    484    486    491      4
   507    509    508    510      4
   522    521    520    518      4
   523    520    522    527      4
   543    545    544    546      4
   558    557    556    554      4
   559    556    558    563      4
   579    581    580    582      4
   594    593    592    590      4
   595    592    594    599      4
   615    617    616    618      4
   630    629    628    626      4
   631    628    630    635      4
   651    653    652    654      4
   666    665    664    662      4
   667    664    666    671      4
   687    689    688    690      4
   716    715    714    696      4
   717    714    716    721      4

