[ moleculetype ]
; Name    nrexcl
polySia 3

[ atoms ]
;   nr       type      resnr   residue      atom  cgnr    charge     mass
; Residue 1 ROH q=-0.194
; ROH for aglycon
     1         Ho      1    ROH    HO1      1     0.4450      1.008
     2         Oh      1    ROH     O1      2    -0.6390     15.999
; Residue 2 8SA q=-1.000
; 
     3         Cy      2    8SA     C2      3     0.2370     12.011
     4          C      2    8SA     C1      4     0.7890     12.011
     5         O2      2    8SA    O1A      5    -0.7610     15.999
     6         O2      2    8SA    O1B      6    -0.7610     15.999
     7         Cg      2    8SA     C3      7     0.0060     12.011
     8         Hc      2    8SA    H3E      8     0.0000      1.008
     9         Hc      2    8SA    H3A      9     0.0000      1.008
    10         Cg      2    8SA     C4     10     0.3320     12.011
    11         H1      2    8SA     H4     11     0.0000      1.008
    12         Oh      2    8SA     O4     12    -0.7620     15.999
    13         Ho      2    8SA    H4O     13     0.4150      1.008
    14         Cg      2    8SA     C5     14     0.3080     12.011
    15         H1      2    8SA     H5     15     0.0000      1.008
    16         Ng      2    8SA     N5     16    -0.6290     14.007
    17          H      2    8SA    H5N     17     0.2800      1.008
    18          C      2    8SA    C5N     18     0.6320     12.011
    19         Cg      2    8SA    CME     19    -0.0030     12.011
    20         Hc      2    8SA    H3M     20     0.0000      1.008
    21         Hc      2    8SA    H2M     21     0.0000      1.008
    22         Hc      2    8SA    H1M     22     0.0000      1.008
    23          O      2    8SA    O5N     23    -0.5930     15.999
    24         Cg      2    8SA     C6     24     0.2200     12.011
    25         H1      2    8SA     H6     25     0.0000      1.008
    26         Oy      2    8SA     O6     26    -0.4030     15.999
    27         Cg      2    8SA     C7     27     0.1110     12.011
    28         H1      2    8SA     H7     28     0.0000      1.008
    29         Oh      2    8SA     O7     29    -0.7210     15.999
    30         Ho      2    8SA    H7O     30     0.4350      1.008
    31         Cg      2    8SA     C8     31     0.4920     12.011
    32         H1      2    8SA     H8     32     0.0000      1.008
    33         Cg      2    8SA     C9     33     0.1780     12.011
    34         H1      2    8SA    H9S     34     0.0000      1.008
    35         H1      2    8SA    H9R     35     0.0000      1.008
    36         Oh      2    8SA     O9     36    -0.6890     15.999
    37         Ho      2    8SA    H9O     37     0.4080      1.008
    38         Os      2    8SA     O8     38    -0.5210     15.999
; Residue 3 8SA q=-1.000
; 
    39         Cy      3    8SA     C2     39     0.2370     12.011
    40          C      3    8SA     C1     40     0.7890     12.011
    41         O2      3    8SA    O1A     41    -0.7610     15.999
    42         O2      3    8SA    O1B     42    -0.7610     15.999
    43         Cg      3    8SA     C3     43     0.0060     12.011
    44         Hc      3    8SA    H3E     44     0.0000      1.008
    45         Hc      3    8SA    H3A     45     0.0000      1.008
    46         Cg      3    8SA     C4     46     0.3320     12.011
    47         H1      3    8SA     H4     47     0.0000      1.008
    48         Oh      3    8SA     O4     48    -0.7620     15.999
    49         Ho      3    8SA    H4O     49     0.4150      1.008
    50         Cg      3    8SA     C5     50     0.3080     12.011
    51         H1      3    8SA     H5     51     0.0000      1.008
    52         Ng      3    8SA     N5     52    -0.6290     14.007
    53          H      3    8SA    H5N     53     0.2800      1.008
    54          C      3    8SA    C5N     54     0.6320     12.011
    55         Cg      3    8SA    CME     55    -0.0030     12.011
    56         Hc      3    8SA    H3M     56     0.0000      1.008
    57         Hc      3    8SA    H2M     57     0.0000      1.008
    58         Hc      3    8SA    H1M     58     0.0000      1.008
    59          O      3    8SA    O5N     59    -0.5930     15.999
    60         Cg      3    8SA     C6     60     0.2200     12.011
    61         H1      3    8SA     H6     61     0.0000      1.008
    62         Oy      3    8SA     O6     62    -0.4030     15.999
    63         Cg      3    8SA     C7     63     0.1110     12.011
    64         H1      3    8SA     H7     64     0.0000      1.008
    65         Oh      3    8SA     O7     65    -0.7210     15.999
    66         Ho      3    8SA    H7O     66     0.4350      1.008
    67         Cg      3    8SA     C8     67     0.4920     12.011
    68         H1      3    8SA     H8     68     0.0000      1.008
    69         Cg      3    8SA     C9     69     0.1780     12.011
    70         H1      3    8SA    H9S     70     0.0000      1.008
    71         H1      3    8SA    H9R     71     0.0000      1.008
    72         Oh      3    8SA     O9     72    -0.6890     15.999
    73         Ho      3    8SA    H9O     73     0.4080      1.008
    74         Os      3    8SA     O8     74    -0.5210     15.999
; Residue 4 8SA q=-1.000
; 
    75         Cy      4    8SA     C2     75     0.2370     12.011
    76          C      4    8SA     C1     76     0.7890     12.011
    77         O2      4    8SA    O1A     77    -0.7610     15.999
    78         O2      4    8SA    O1B     78    -0.7610     15.999
    79         Cg      4    8SA     C3     79     0.0060     12.011
    80         Hc      4    8SA    H3E     80     0.0000      1.008
    81         Hc      4    8SA    H3A     81     0.0000      1.008
    82         Cg      4    8SA     C4     82     0.3320     12.011
    83         H1      4    8SA     H4     83     0.0000      1.008
    84         Oh      4    8SA     O4     84    -0.7620     15.999
    85         Ho      4    8SA    H4O     85     0.4150      1.008
    86         Cg      4    8SA     C5     86     0.3080     12.011
    87         H1      4    8SA     H5     87     0.0000      1.008
    88         Ng      4    8SA     N5     88    -0.6290     14.007
    89          H      4    8SA    H5N     89     0.2800      1.008
    90          C      4    8SA    C5N     90     0.6320     12.011
    91         Cg      4    8SA    CME     91    -0.0030     12.011
    92         Hc      4    8SA    H3M     92     0.0000      1.008
    93         Hc      4    8SA    H2M     93     0.0000      1.008
    94         Hc      4    8SA    H1M     94     0.0000      1.008
    95          O      4    8SA    O5N     95    -0.5930     15.999
    96         Cg      4    8SA     C6     96     0.2200     12.011
    97         H1      4    8SA     H6     97     0.0000      1.008
    98         Oy      4    8SA     O6     98    -0.4030     15.999
    99         Cg      4    8SA     C7     99     0.1110     12.011
   100         H1      4    8SA     H7    100     0.0000      1.008
   101         Oh      4    8SA     O7    101    -0.7210     15.999
   102         Ho      4    8SA    H7O    102     0.4350      1.008
   103         Cg      4    8SA     C8    103     0.4920     12.011
   104         H1      4    8SA     H8    104     0.0000      1.008
   105         Cg      4    8SA     C9    105     0.1780     12.011
   106         H1      4    8SA    H9S    106     0.0000      1.008
   107         H1      4    8SA    H9R    107     0.0000      1.008
   108         Oh      4    8SA     O9    108    -0.6890     15.999
   109         Ho      4    8SA    H9O    109     0.4080      1.008
   110         Os      4    8SA     O8    110    -0.5210     15.999
; Residue 5 8SA q=-1.000
; 
   111         Cy      5    8SA     C2    111     0.2370     12.011
   112          C      5    8SA     C1    112     0.7890     12.011
   113         O2      5    8SA    O1A    113    -0.7610     15.999
   114         O2      5    8SA    O1B    114    -0.7610     15.999
   115         Cg      5    8SA     C3    115     0.0060     12.011
   116         Hc      5    8SA    H3E    116     0.0000      1.008
   117         Hc      5    8SA    H3A    117     0.0000      1.008
   118         Cg      5    8SA     C4    118     0.3320     12.011
   119         H1      5    8SA     H4    119     0.0000      1.008
   120         Oh      5    8SA     O4    120    -0.7620     15.999
   121         Ho      5    8SA    H4O    121     0.4150      1.008
   122         Cg      5    8SA     C5    122     0.3080     12.011
   123         H1      5    8SA     H5    123     0.0000      1.008
   124         Ng      5    8SA     N5    124    -0.6290     14.007
   125          H      5    8SA    H5N    125     0.2800      1.008
   126          C      5    8SA    C5N    126     0.6320     12.011
   127         Cg      5    8SA    CME    127    -0.0030     12.011
   128         Hc      5    8SA    H3M    128     0.0000      1.008
   129         Hc      5    8SA    H2M    129     0.0000      1.008
   130         Hc      5    8SA    H1M    130     0.0000      1.008
   131          O      5    8SA    O5N    131    -0.5930     15.999
   132         Cg      5    8SA     C6    132     0.2200     12.011
   133         H1      5    8SA     H6    133     0.0000      1.008
   134         Oy      5    8SA     O6    134    -0.4030     15.999
   135         Cg      5    8SA     C7    135     0.1110     12.011
   136         H1      5    8SA     H7    136     0.0000      1.008
   137         Oh      5    8SA     O7    137    -0.7210     15.999
   138         Ho      5    8SA    H7O    138     0.4350      1.008
   139         Cg      5    8SA     C8    139     0.4920     12.011
   140         H1      5    8SA     H8    140     0.0000      1.008
   141         Cg      5    8SA     C9    141     0.1780     12.011
   142         H1      5    8SA    H9S    142     0.0000      1.008
   143         H1      5    8SA    H9R    143     0.0000      1.008
   144         Oh      5    8SA     O9    144    -0.6890     15.999
   145         Ho      5    8SA    H9O    145     0.4080      1.008
   146         Os      5    8SA     O8    146    -0.5210     15.999
; Residue 6 8SA q=-1.000
; 
   147         Cy      6    8SA     C2    147     0.2370     12.011
   148          C      6    8SA     C1    148     0.7890     12.011
   149         O2      6    8SA    O1A    149    -0.7610     15.999
   150         O2      6    8SA    O1B    150    -0.7610     15.999
   151         Cg      6    8SA     C3    151     0.0060     12.011
   152         Hc      6    8SA    H3E    152     0.0000      1.008
   153         Hc      6    8SA    H3A    153     0.0000      1.008
   154         Cg      6    8SA     C4    154     0.3320     12.011
   155         H1      6    8SA     H4    155     0.0000      1.008
   156         Oh      6    8SA     O4    156    -0.7620     15.999
   157         Ho      6    8SA    H4O    157     0.4150      1.008
   158         Cg      6    8SA     C5    158     0.3080     12.011
   159         H1      6    8SA     H5    159     0.0000      1.008
   160         Ng      6    8SA     N5    160    -0.6290     14.007
   161          H      6    8SA    H5N    161     0.2800      1.008
   162          C      6    8SA    C5N    162     0.6320     12.011
   163         Cg      6    8SA    CME    163    -0.0030     12.011
   164         Hc      6    8SA    H3M    164     0.0000      1.008
   165         Hc      6    8SA    H2M    165     0.0000      1.008
   166         Hc      6    8SA    H1M    166     0.0000      1.008
   167          O      6    8SA    O5N    167    -0.5930     15.999
   168         Cg      6    8SA     C6    168     0.2200     12.011
   169         H1      6    8SA     H6    169     0.0000      1.008
   170         Oy      6    8SA     O6    170    -0.4030     15.999
   171         Cg      6    8SA     C7    171     0.1110     12.011
   172         H1      6    8SA     H7    172     0.0000      1.008
   173         Oh      6    8SA     O7    173    -0.7210     15.999
   174         Ho      6    8SA    H7O    174     0.4350      1.008
   175         Cg      6    8SA     C8    175     0.4920     12.011
   176         H1      6    8SA     H8    176     0.0000      1.008
   177         Cg      6    8SA     C9    177     0.1780     12.011
   178         H1      6    8SA    H9S    178     0.0000      1.008
   179         H1      6    8SA    H9R    179     0.0000      1.008
   180         Oh      6    8SA     O9    180    -0.6890     15.999
   181         Ho      6    8SA    H9O    181     0.4080      1.008
   182         Os      6    8SA     O8    182    -0.5210     15.999
; Residue 7 8SA q=-1.000
; 
   183         Cy      7    8SA     C2    183     0.2370     12.011
   184          C      7    8SA     C1    184     0.7890     12.011
   185         O2      7    8SA    O1A    185    -0.7610     15.999
   186         O2      7    8SA    O1B    186    -0.7610     15.999
   187         Cg      7    8SA     C3    187     0.0060     12.011
   188         Hc      7    8SA    H3E    188     0.0000      1.008
   189         Hc      7    8SA    H3A    189     0.0000      1.008
   190         Cg      7    8SA     C4    190     0.3320     12.011
   191         H1      7    8SA     H4    191     0.0000      1.008
   192         Oh      7    8SA     O4    192    -0.7620     15.999
   193         Ho      7    8SA    H4O    193     0.4150      1.008
   194         Cg      7    8SA     C5    194     0.3080     12.011
   195         H1      7    8SA     H5    195     0.0000      1.008
   196         Ng      7    8SA     N5    196    -0.6290     14.007
   197          H      7    8SA    H5N    197     0.2800      1.008
   198          C      7    8SA    C5N    198     0.6320     12.011
   199         Cg      7    8SA    CME    199    -0.0030     12.011
   200         Hc      7    8SA    H3M    200     0.0000      1.008
   201         Hc      7    8SA    H2M    201     0.0000      1.008
   202         Hc      7    8SA    H1M    202     0.0000      1.008
   203          O      7    8SA    O5N    203    -0.5930     15.999
   204         Cg      7    8SA     C6    204     0.2200     12.011
   205         H1      7    8SA     H6    205     0.0000      1.008
   206         Oy      7    8SA     O6    206    -0.4030     15.999
   207         Cg      7    8SA     C7    207     0.1110     12.011
   208         H1      7    8SA     H7    208     0.0000      1.008
   209         Oh      7    8SA     O7    209    -0.7210     15.999
   210         Ho      7    8SA    H7O    210     0.4350      1.008
   211         Cg      7    8SA     C8    211     0.4920     12.011
   212         H1      7    8SA     H8    212     0.0000      1.008
   213         Cg      7    8SA     C9    213     0.1780     12.011
   214         H1      7    8SA    H9S    214     0.0000      1.008
   215         H1      7    8SA    H9R    215     0.0000      1.008
   216         Oh      7    8SA     O9    216    -0.6890     15.999
   217         Ho      7    8SA    H9O    217     0.4080      1.008
   218         Os      7    8SA     O8    218    -0.5210     15.999
; Residue 8 8SA q=-1.000
; 
   219         Cy      8    8SA     C2    219     0.2370     12.011
   220          C      8    8SA     C1    220     0.7890     12.011
   221         O2      8    8SA    O1A    221    -0.7610     15.999
   222         O2      8    8SA    O1B    222    -0.7610     15.999
   223         Cg      8    8SA     C3    223     0.0060     12.011
   224         Hc      8    8SA    H3E    224     0.0000      1.008
   225         Hc      8    8SA    H3A    225     0.0000      1.008
   226         Cg      8    8SA     C4    226     0.3320     12.011
   227         H1      8    8SA     H4    227     0.0000      1.008
   228         Oh      8    8SA     O4    228    -0.7620     15.999
   229         Ho      8    8SA    H4O    229     0.4150      1.008
   230         Cg      8    8SA     C5    230     0.3080     12.011
   231         H1      8    8SA     H5    231     0.0000      1.008
   232         Ng      8    8SA     N5    232    -0.6290     14.007
   233          H      8    8SA    H5N    233     0.2800      1.008
   234          C      8    8SA    C5N    234     0.6320     12.011
   235         Cg      8    8SA    CME    235    -0.0030     12.011
   236         Hc      8    8SA    H3M    236     0.0000      1.008
   237         Hc      8    8SA    H2M    237     0.0000      1.008
   238         Hc      8    8SA    H1M    238     0.0000      1.008
   239          O      8    8SA    O5N    239    -0.5930     15.999
   240         Cg      8    8SA     C6    240     0.2200     12.011
   241         H1      8    8SA     H6    241     0.0000      1.008
   242         Oy      8    8SA     O6    242    -0.4030     15.999
   243         Cg      8    8SA     C7    243     0.1110     12.011
   244         H1      8    8SA     H7    244     0.0000      1.008
   245         Oh      8    8SA     O7    245    -0.7210     15.999
   246         Ho      8    8SA    H7O    246     0.4350      1.008
   247         Cg      8    8SA     C8    247     0.4920     12.011
   248         H1      8    8SA     H8    248     0.0000      1.008
   249         Cg      8    8SA     C9    249     0.1780     12.011
   250         H1      8    8SA    H9S    250     0.0000      1.008
   251         H1      8    8SA    H9R    251     0.0000      1.008
   252         Oh      8    8SA     O9    252    -0.6890     15.999
   253         Ho      8    8SA    H9O    253     0.4080      1.008
   254         Os      8    8SA     O8    254    -0.5210     15.999
; Residue 9 8SA q=-1.000
; 
   255         Cy      9    8SA     C2    255     0.2370     12.011
   256          C      9    8SA     C1    256     0.7890     12.011
   257         O2      9    8SA    O1A    257    -0.7610     15.999
   258         O2      9    8SA    O1B    258    -0.7610     15.999
   259         Cg      9    8SA     C3    259     0.0060     12.011
   260         Hc      9    8SA    H3E    260     0.0000      1.008
   261         Hc      9    8SA    H3A    261     0.0000      1.008
   262         Cg      9    8SA     C4    262     0.3320     12.011
   263         H1      9    8SA     H4    263     0.0000      1.008
   264         Oh      9    8SA     O4    264    -0.7620     15.999
   265         Ho      9    8SA    H4O    265     0.4150      1.008
   266         Cg      9    8SA     C5    266     0.3080     12.011
   267         H1      9    8SA     H5    267     0.0000      1.008
   268         Ng      9    8SA     N5    268    -0.6290     14.007
   269          H      9    8SA    H5N    269     0.2800      1.008
   270          C      9    8SA    C5N    270     0.6320     12.011
   271         Cg      9    8SA    CME    271    -0.0030     12.011
   272         Hc      9    8SA    H3M    272     0.0000      1.008
   273         Hc      9    8SA    H2M    273     0.0000      1.008
   274         Hc      9    8SA    H1M    274     0.0000      1.008
   275          O      9    8SA    O5N    275    -0.5930     15.999
   276         Cg      9    8SA     C6    276     0.2200     12.011
   277         H1      9    8SA     H6    277     0.0000      1.008
   278         Oy      9    8SA     O6    278    -0.4030     15.999
   279         Cg      9    8SA     C7    279     0.1110     12.011
   280         H1      9    8SA     H7    280     0.0000      1.008
   281         Oh      9    8SA     O7    281    -0.7210     15.999
   282         Ho      9    8SA    H7O    282     0.4350      1.008
   283         Cg      9    8SA     C8    283     0.4920     12.011
   284         H1      9    8SA     H8    284     0.0000      1.008
   285         Cg      9    8SA     C9    285     0.1780     12.011
   286         H1      9    8SA    H9S    286     0.0000      1.008
   287         H1      9    8SA    H9R    287     0.0000      1.008
   288         Oh      9    8SA     O9    288    -0.6890     15.999
   289         Ho      9    8SA    H9O    289     0.4080      1.008
   290         Os      9    8SA     O8    290    -0.5210     15.999
; Residue 10 8SA q=-1.000
; 
   291         Cy     10    8SA     C2    291     0.2370     12.011
   292          C     10    8SA     C1    292     0.7890     12.011
   293         O2     10    8SA    O1A    293    -0.7610     15.999
   294         O2     10    8SA    O1B    294    -0.7610     15.999
   295         Cg     10    8SA     C3    295     0.0060     12.011
   296         Hc     10    8SA    H3E    296     0.0000      1.008
   297         Hc     10    8SA    H3A    297     0.0000      1.008
   298         Cg     10    8SA     C4    298     0.3320     12.011
   299         H1     10    8SA     H4    299     0.0000      1.008
   300         Oh     10    8SA     O4    300    -0.7620     15.999
   301         Ho     10    8SA    H4O    301     0.4150      1.008
   302         Cg     10    8SA     C5    302     0.3080     12.011
   303         H1     10    8SA     H5    303     0.0000      1.008
   304         Ng     10    8SA     N5    304    -0.6290     14.007
   305          H     10    8SA    H5N    305     0.2800      1.008
   306          C     10    8SA    C5N    306     0.6320     12.011
   307         Cg     10    8SA    CME    307    -0.0030     12.011
   308         Hc     10    8SA    H3M    308     0.0000      1.008
   309         Hc     10    8SA    H2M    309     0.0000      1.008
   310         Hc     10    8SA    H1M    310     0.0000      1.008
   311          O     10    8SA    O5N    311    -0.5930     15.999
   312         Cg     10    8SA     C6    312     0.2200     12.011
   313         H1     10    8SA     H6    313     0.0000      1.008
   314         Oy     10    8SA     O6    314    -0.4030     15.999
   315         Cg     10    8SA     C7    315     0.1110     12.011
   316         H1     10    8SA     H7    316     0.0000      1.008
   317         Oh     10    8SA     O7    317    -0.7210     15.999
   318         Ho     10    8SA    H7O    318     0.4350      1.008
   319         Cg     10    8SA     C8    319     0.4920     12.011
   320         H1     10    8SA     H8    320     0.0000      1.008
   321         Cg     10    8SA     C9    321     0.1780     12.011
   322         H1     10    8SA    H9S    322     0.0000      1.008
   323         H1     10    8SA    H9R    323     0.0000      1.008
   324         Oh     10    8SA     O9    324    -0.6890     15.999
   325         Ho     10    8SA    H9O    325     0.4080      1.008
   326         Os     10    8SA     O8    326    -0.5210     15.999
; Residue 11 0SA q=-0.806
; 
   327         Cy     11    0SA     C2    327     0.2370     12.011
   328          C     11    0SA     C1    328     0.7890     12.011
   329         O2     11    0SA    O1A    329    -0.7610     15.999
   330         O2     11    0SA    O1B    330    -0.7610     15.999
   331         Cg     11    0SA     C3    331     0.0060     12.011
   332         Hc     11    0SA    H3E    332     0.0000      1.008
   333         Hc     11    0SA    H3A    333     0.0000      1.008
   334         Cg     11    0SA     C4    334     0.3320     12.011
   335         H1     11    0SA     H4    335     0.0000      1.008
   336         Cg     11    0SA     C5    336     0.3080     12.011
   337         H1     11    0SA     H5    337     0.0000      1.008
   338         Cg     11    0SA     C6    338     0.2200     12.011
   339         H1     11    0SA     H6    339     0.0000      1.008
   340         Cg     11    0SA     C7    340     0.1110     12.011
   341         H1     11    0SA     H7    341     0.0000      1.008
   342         Cg     11    0SA     C8    342     0.4920     12.011
   343         H1     11    0SA     H8    343     0.0000      1.008
   344         Cg     11    0SA     C9    344     0.1780     12.011
   345         H1     11    0SA    H9S    345     0.0000      1.008
   346         H1     11    0SA    H9R    346     0.0000      1.008
   347         Oh     11    0SA     O9    347    -0.6890     15.999
   348         Ho     11    0SA    H9O    348     0.4080      1.008
   349         Oh     11    0SA     O8    349    -0.7390     15.999
   350         Ho     11    0SA    H8O    350     0.4120      1.008
   351         Oh     11    0SA     O7    351    -0.7210     15.999
   352         Ho     11    0SA    H7O    352     0.4350      1.008
   353         Oy     11    0SA     O6    353    -0.4030     15.999
   354         Ng     11    0SA     N5    354    -0.6290     14.007
   355          H     11    0SA    H5N    355     0.2800      1.008
   356          C     11    0SA    C5N    356     0.6320     12.011
   357         Cg     11    0SA    CME    357    -0.0030     12.011
   358         Hc     11    0SA    H3M    358     0.0000      1.008
   359         Hc     11    0SA    H2M    359     0.0000      1.008
   360         Hc     11    0SA    H1M    360     0.0000      1.008
   361          O     11    0SA    O5N    361    -0.5930     15.999
   362         Oh     11    0SA     O4    362    -0.7620     15.999
   363         Ho     11    0SA    H4O    363     0.4150      1.008

[ bonds ]
;   ai     aj   funct   c0   c1
     1      2      1
     2      3      1
     3      4      1
     3      7      1
     3     26      1
     4      5      1
     4      6      1
     7      8      1
     7      9      1
     7     10      1
    10     11      1
    10     12      1
    10     14      1
    12     13      1
    14     15      1
    14     16      1
    14     24      1
    16     17      1
    16     18      1
    18     19      1
    18     23      1
    19     20      1
    19     21      1
    19     22      1
    24     25      1
    24     26      1
    24     27      1
    27     28      1
    27     29      1
    27     31      1
    29     30      1
    31     32      1
    31     33      1
    31     38      1
    33     34      1
    33     35      1
    33     36      1
    36     37      1
    38     39      1
    39     40      1
    39     43      1
    39     62      1
    40     41      1
    40     42      1
    43     44      1
    43     45      1
    43     46      1
    46     47      1
    46     48      1
    46     50      1
    48     49      1
    50     51      1
    50     52      1
    50     60      1
    52     53      1
    52     54      1
    54     55      1
    54     59      1
    55     56      1
    55     57      1
    55     58      1
    60     61      1
    60     62      1
    60     63      1
    63     64      1
    63     65      1
    63     67      1
    65     66      1
    67     68      1
    67     69      1
    67     74      1
    69     70      1
    69     71      1
    69     72      1
    72     73      1
    74     75      1
    75     76      1
    75     79      1
    75     98      1
    76     77      1
    76     78      1
    79     80      1
    79     81      1
    79     82      1
    82     83      1
    82     84      1
    82     86      1
    84     85      1
    86     87      1
    86     88      1
    86     96      1
    88     89      1
    88     90      1
    90     91      1
    90     95      1
    91     92      1
    91     93      1
    91     94      1
    96     97      1
    96     98      1
    96     99      1
    99    100      1
    99    101      1
    99    103      1
   101    102      1
   103    104      1
   103    105      1
   103    110      1
   105    106      1
   105    107      1
   105    108      1
   108    109      1
   110    111      1
   111    112      1
   111    115      1
   111    134      1
   112    113      1
   112    114      1
   115    116      1
   115    117      1
   115    118      1
   118    119      1
   118    120      1
   118    122      1
   120    121      1
   122    123      1
   122    124      1
   122    132      1
   124    125      1
   124    126      1
   126    127      1
   126    131      1
   127    128      1
   127    129      1
   127    130      1
   132    133      1
   132    134      1
   132    135      1
   135    136      1
   135    137      1
   135    139      1
   137    138      1
   139    140      1
   139    141      1
   139    146      1
   141    142      1
   141    143      1
   141    144      1
   144    145      1
   146    147      1
   147    148      1
   147    151      1
   147    170      1
   148    149      1
   148    150      1
   151    152      1
   151    153      1
   151    154      1
   154    155      1
   154    156      1
   154    158      1
   156    157      1
   158    159      1
   158    160      1
   158    168      1
   160    161      1
   160    162      1
   162    163      1
   162    167      1
   163    164      1
   163    165      1
   163    166      1
   168    169      1
   168    170      1
   168    171      1
   171    172      1
   171    173      1
   171    175      1
   173    174      1
   175    176      1
   175    177      1
   175    182      1
   177    178      1
   177    179      1
   177    180      1
   180    181      1
   182    183      1
   183    184      1
   183    187      1
   183    206      1
   184    185      1
   184    186      1
   187    188      1
   187    189      1
   187    190      1
   190    191      1
   190    192      1
   190    194      1
   192    193      1
   194    195      1
   194    196      1
   194    204      1
   196    197      1
   196    198      1
   198    199      1
   198    203      1
   199    200      1
   199    201      1
   199    202      1
   204    205      1
   204    206      1
   204    207      1
   207    208      1
   207    209      1
   207    211      1
   209    210      1
   211    212      1
   211    213      1
   211    218      1
   213    214      1
   213    215      1
   213    216      1
   216    217      1
   218    219      1
   219    220      1
   219    223      1
   219    242      1
   220    221      1
   220    222      1
   223    224      1
   223    225      1
   223    226      1
   226    227      1
   226    228      1
   226    230      1
   228    229      1
   230    231      1
   230    232      1
   230    240      1
   232    233      1
   232    234      1
   234    235      1
   234    239      1
   235    236      1
   235    237      1
   235    238      1
   240    241      1
   240    242      1
   240    243      1
   243    244      1
   243    245      1
   243    247      1
   245    246      1
   247    248      1
   247    249      1
   247    254      1
   249    250      1
   249    251      1
   249    252      1
   252    253      1
   254    255      1
   255    256      1
   255    259      1
   255    278      1
   256    257      1
   256    258      1
   259    260      1
   259    261      1
   259    262      1
   262    263      1
   262    264      1
   262    266      1
   264    265      1
   266    267      1
   266    268      1
   266    276      1
   268    269      1
   268    270      1
   270    271      1
   270    275      1
   271    272      1
   271    273      1
   271    274      1
   276    277      1
   276    278      1
   276    279      1
   279    280      1
   279    281      1
   279    283      1
   281    282      1
   283    284      1
   283    285      1
   283    290      1
   285    286      1
   285    287      1
   285    288      1
   288    289      1
   290    291      1
   291    292      1
   291    295      1
   291    314      1
   292    293      1
   292    294      1
   295    296      1
   295    297      1
   295    298      1
   298    299      1
   298    300      1
   298    302      1
   300    301      1
   302    303      1
   302    304      1
   302    312      1
   304    305      1
   304    306      1
   306    307      1
   306    311      1
   307    308      1
   307    309      1
   307    310      1
   312    313      1
   312    314      1
   312    315      1
   315    316      1
   315    317      1
   315    319      1
   317    318      1
   319    320      1
   319    321      1
   319    326      1
   321    322      1
   321    323      1
   321    324      1
   324    325      1
   326    327      1
   327    328      1
   327    331      1
   327    353      1
   328    329      1
   328    330      1
   331    332      1
   331    333      1
   331    334      1
   334    335      1
   334    336      1
   334    362      1
   336    337      1
   336    338      1
   336    354      1
   338    339      1
   338    340      1
   338    353      1
   340    341      1
   340    342      1
   340    351      1
   342    343      1
   342    344      1
   342    349      1
   344    345      1
   344    346      1
   344    347      1
   347    348      1
   349    350      1
   351    352      1
   354    355      1
   354    356      1
   356    357      1
   356    361      1
   357    358      1
   357    359      1
   357    360      1
   362    363      1

[ pairs ]
;   ai     aj   funct   c0   c1
     1      4      1
     1      7      2   1.0000    0.4450    0.0060   1.87801e-01   2.39696e-01
     1     26      2   1.0000    0.4450   -0.4030   1.67818e-01   2.98797e-01
     2      5      1
     2      6      1
     2      8      2   1.0000   -0.6390    0.0000   2.85800e-01   2.40472e-01
     2      9      2   1.0000   -0.6390    0.0000   2.85800e-01   2.40472e-01
     2     10      2   1.0000   -0.6390    0.3320   3.23307e-01   6.34780e-01
     2     24      2   1.0000   -0.6390    0.2200   3.23307e-01   6.34780e-01
     3     11      1
     3     12      2   1.0000    0.2370   -0.7620   3.23307e-01   6.34780e-01
     3     14      2   1.0000    0.2370    0.3080   3.39967e-01   4.57730e-01
     3     25      1
     3     27      2   1.0000    0.2370    0.1110   3.39967e-01   4.57730e-01
     4      8      1
     4      9      1
     4     10      1
     4     24      1
     5      7      1
     5     26      1
     6      7      1
     6     26      1
     7     13      2   1.0000    0.0060    0.4150   1.87801e-01   2.39696e-01
     7     15      1
     7     16      2   1.0000    0.0060   -0.6290   3.32484e-01   5.70591e-01
     7     24      2   1.0000    0.0060    0.2200   3.39967e-01   4.57730e-01
     8     11      1
     8     12      2   1.0000    0.0000   -0.7620   2.85800e-01   2.40472e-01
     8     14      2   1.0000    0.0000    0.3080   3.02460e-01   1.73401e-01
     8     26      2   1.0000    0.0000   -0.4030   2.82477e-01   2.16155e-01
     9     11      1
     9     12      2   1.0000    0.0000   -0.7620   2.85800e-01   2.40472e-01
     9     14      2   1.0000    0.0000    0.3080   3.02460e-01   1.73401e-01
     9     26      2   1.0000    0.0000   -0.4030   2.82477e-01   2.16155e-01
    10     17      1
    10     18      1
    10     25      1
    10     26      2   1.0000    0.3320   -0.4030   3.19984e-01   5.70591e-01
    10     27      2   1.0000    0.3320    0.1110   3.39967e-01   4.57730e-01
    11     13      1
    11     15      1
    11     16      1
    11     24      1
    12     15      1
    12     16      2   1.0000   -0.7620   -0.6290   3.15824e-01   7.91296e-01
    12     24      2   1.0000   -0.7620    0.2200   3.23307e-01   6.34780e-01
    13     14      2   1.0000    0.4150    0.3080   1.87801e-01   2.39696e-01
    14     19      2   1.0000    0.3080   -0.0030   3.39967e-01   4.57730e-01
    14     23      1
    14     28      1
    14     29      2   1.0000    0.3080   -0.7210   3.23307e-01   6.34780e-01
    14     31      2   1.0000    0.3080    0.4920   3.39967e-01   4.57730e-01
    15     17      1
    15     18      1
    15     25      1
    15     26      1
    15     27      1
    16     20      2   1.0000   -0.6290    0.0000   2.94976e-01   2.16155e-01
    16     21      2   1.0000   -0.6290    0.0000   2.94976e-01   2.16155e-01
    16     22      2   1.0000   -0.6290    0.0000   2.94976e-01   2.16155e-01
    16     25      1
    16     26      2   1.0000   -0.6290   -0.4030   3.12501e-01   7.11280e-01
    16     27      2   1.0000   -0.6290    0.1110   3.32484e-01   5.70591e-01
    17     19      1
    17     23      1
    17     24      1
    18     24      1
    20     23      1
    21     23      1
    22     23      1
    24     30      2   1.0000    0.2200    0.4350   1.87801e-01   2.39696e-01
    24     32      1
    24     33      2   1.0000    0.2200    0.1780   3.39967e-01   4.57730e-01
    24     38      2   1.0000    0.2200   -0.5210   3.19984e-01   5.70591e-01
    25     28      1
    25     29      1
    25     31      1
    26     28      1
    26     29      2   1.0000   -0.4030   -0.7210   3.03324e-01   7.91296e-01
    26     31      2   1.0000   -0.4030    0.4920   3.19984e-01   5.70591e-01
    27     34      1
    27     35      1
    27     36      2   1.0000    0.1110   -0.6890   3.23307e-01   6.34780e-01
    27     39      2   1.0000    0.1110    0.2370   3.39967e-01   4.57730e-01
    28     30      1
    28     32      1
    28     33      1
    28     38      1
    29     32      1
    29     33      2   1.0000   -0.7210    0.1780   3.23307e-01   6.34780e-01
    29     38      2   1.0000   -0.7210   -0.5210   3.03324e-01   7.91296e-01
    30     31      2   1.0000    0.4350    0.4920   1.87801e-01   2.39696e-01
    31     37      2   1.0000    0.4920    0.4080   1.87801e-01   2.39696e-01
    31     40      1
    31     43      2   1.0000    0.4920    0.0060   3.39967e-01   4.57730e-01
    31     62      2   1.0000    0.4920   -0.4030   3.19984e-01   5.70591e-01
    32     34      1
    32     35      1
    32     36      1
    32     39      1
    33     39      2   1.0000    0.1780    0.2370   3.39967e-01   4.57730e-01
    34     37      1
    34     38      1
    35     37      1
    35     38      1
    36     38      2   1.0000   -0.6890   -0.5210   3.03324e-01   7.91296e-01
    38     41      1
    38     42      1
    38     44      2   1.0000   -0.5210    0.0000   2.82477e-01   2.16155e-01
    38     45      2   1.0000   -0.5210    0.0000   2.82477e-01   2.16155e-01
    38     46      2   1.0000   -0.5210    0.3320   3.19984e-01   5.70591e-01
    38     60      2   1.0000   -0.5210    0.2200   3.19984e-01   5.70591e-01
    39     47      1
    39     48      2   1.0000    0.2370   -0.7620   3.23307e-01   6.34780e-01
    39     50      2   1.0000    0.2370    0.3080   3.39967e-01   4.57730e-01
    39     61      1
    39     63      2   1.0000    0.2370    0.1110   3.39967e-01   4.57730e-01
    40     44      1
    40     45      1
    40     46      1
    40     60      1
    41     43      1
    41     62      1
    42     43      1
    42     62      1
    43     49      2   1.0000    0.0060    0.4150   1.87801e-01   2.39696e-01
    43     51      1
    43     52      2   1.0000    0.0060   -0.6290   3.32484e-01   5.70591e-01
    43     60      2   1.0000    0.0060    0.2200   3.39967e-01   4.57730e-01
    44     47      1
    44     48      2   1.0000    0.0000   -0.7620   2.85800e-01   2.40472e-01
    44     50      2   1.0000    0.0000    0.3080   3.02460e-01   1.73401e-01
    44     62      2   1.0000    0.0000   -0.4030   2.82477e-01   2.16155e-01
    45     47      1
    45     48      2   1.0000    0.0000   -0.7620   2.85800e-01   2.40472e-01
    45     50      2   1.0000    0.0000    0.3080   3.02460e-01   1.73401e-01
    45     62      2   1.0000    0.0000   -0.4030   2.82477e-01   2.16155e-01
    46     53      1
    46     54      1
    46     61      1
    46     62      2   1.0000    0.3320   -0.4030   3.19984e-01   5.70591e-01
    46     63      2   1.0000    0.3320    0.1110   3.39967e-01   4.57730e-01
    47     49      1
    47     51      1
    47     52      1
    47     60      1
    48     51      1
    48     52      2   1.0000   -0.7620   -0.6290   3.15824e-01   7.91296e-01
    48     60      2   1.0000   -0.7620    0.2200   3.23307e-01   6.34780e-01
    49     50      2   1.0000    0.4150    0.3080   1.87801e-01   2.39696e-01
    50     55      2   1.0000    0.3080   -0.0030   3.39967e-01   4.57730e-01
    50     59      1
    50     64      1
    50     65      2   1.0000    0.3080   -0.7210   3.23307e-01   6.34780e-01
    50     67      2   1.0000    0.3080    0.4920   3.39967e-01   4.57730e-01
    51     53      1
    51     54      1
    51     61      1
    51     62      1
    51     63      1
    52     56      2   1.0000   -0.6290    0.0000   2.94976e-01   2.16155e-01
    52     57      2   1.0000   -0.6290    0.0000   2.94976e-01   2.16155e-01
    52     58      2   1.0000   -0.6290    0.0000   2.94976e-01   2.16155e-01
    52     61      1
    52     62      2   1.0000   -0.6290   -0.4030   3.12501e-01   7.11280e-01
    52     63      2   1.0000   -0.6290    0.1110   3.32484e-01   5.70591e-01
    53     55      1
    53     59      1
    53     60      1
    54     60      1
    56     59      1
    57     59      1
    58     59      1
    60     66      2   1.0000    0.2200    0.4350   1.87801e-01   2.39696e-01
    60     68      1
    60     69      2   1.0000    0.2200    0.1780   3.39967e-01   4.57730e-01
    60     74      2   1.0000    0.2200   -0.5210   3.19984e-01   5.70591e-01
    61     64      1
    61     65      1
    61     67      1
    62     64      1
    62     65      2   1.0000   -0.4030   -0.7210   3.03324e-01   7.91296e-01
    62     67      2   1.0000   -0.4030    0.4920   3.19984e-01   5.70591e-01
    63     70      1
    63     71      1
    63     72      2   1.0000    0.1110   -0.6890   3.23307e-01   6.34780e-01
    63     75      2   1.0000    0.1110    0.2370   3.39967e-01   4.57730e-01
    64     66      1
    64     68      1
    64     69      1
    64     74      1
    65     68      1
    65     69      2   1.0000   -0.7210    0.1780   3.23307e-01   6.34780e-01
    65     74      2   1.0000   -0.7210   -0.5210   3.03324e-01   7.91296e-01
    66     67      2   1.0000    0.4350    0.4920   1.87801e-01   2.39696e-01
    67     73      2   1.0000    0.4920    0.4080   1.87801e-01   2.39696e-01
    67     76      1
    67     79      2   1.0000    0.4920    0.0060   3.39967e-01   4.57730e-01
    67     98      2   1.0000    0.4920   -0.4030   3.19984e-01   5.70591e-01
    68     70      1
    68     71      1
    68     72      1
    68     75      1
    69     75      2   1.0000    0.1780    0.2370   3.39967e-01   4.57730e-01
    70     73      1
    70     74      1
    71     73      1
    71     74      1
    72     74      2   1.0000   -0.6890   -0.5210   3.03324e-01   7.91296e-01
    74     77      1
    74     78      1
    74     80      2   1.0000   -0.5210    0.0000   2.82477e-01   2.16155e-01
    74     81      2   1.0000   -0.5210    0.0000   2.82477e-01   2.16155e-01
    74     82      2   1.0000   -0.5210    0.3320   3.19984e-01   5.70591e-01
    74     96      2   1.0000   -0.5210    0.2200   3.19984e-01   5.70591e-01
    75     83      1
    75     84      2   1.0000    0.2370   -0.7620   3.23307e-01   6.34780e-01
    75     86      2   1.0000    0.2370    0.3080   3.39967e-01   4.57730e-01
    75     97      1
    75     99      2   1.0000    0.2370    0.1110   3.39967e-01   4.57730e-01
    76     80      1
    76     81      1
    76     82      1
    76     96      1
    77     79      1
    77     98      1
    78     79      1
    78     98      1
    79     85      2   1.0000    0.0060    0.4150   1.87801e-01   2.39696e-01
    79     87      1
    79     88      2   1.0000    0.0060   -0.6290   3.32484e-01   5.70591e-01
    79     96      2   1.0000    0.0060    0.2200   3.39967e-01   4.57730e-01
    80     83      1
    80     84      2   1.0000    0.0000   -0.7620   2.85800e-01   2.40472e-01
    80     86      2   1.0000    0.0000    0.3080   3.02460e-01   1.73401e-01
    80     98      2   1.0000    0.0000   -0.4030   2.82477e-01   2.16155e-01
    81     83      1
    81     84      2   1.0000    0.0000   -0.7620   2.85800e-01   2.40472e-01
    81     86      2   1.0000    0.0000    0.3080   3.02460e-01   1.73401e-01
    81     98      2   1.0000    0.0000   -0.4030   2.82477e-01   2.16155e-01
    82     89      1
    82     90      1
    82     97      1
    82     98      2   1.0000    0.3320   -0.4030   3.19984e-01   5.70591e-01
    82     99      2   1.0000    0.3320    0.1110   3.39967e-01   4.57730e-01
    83     85      1
    83     87      1
    83     88      1
    83     96      1
    84     87      1
    84     88      2   1.0000   -0.7620   -0.6290   3.15824e-01   7.91296e-01
    84     96      2   1.0000   -0.7620    0.2200   3.23307e-01   6.34780e-01
    85     86      2   1.0000    0.4150    0.3080   1.87801e-01   2.39696e-01
    86     91      2   1.0000    0.3080   -0.0030   3.39967e-01   4.57730e-01
    86     95      1
    86    100      1
    86    101      2   1.0000    0.3080   -0.7210   3.23307e-01   6.34780e-01
    86    103      2   1.0000    0.3080    0.4920   3.39967e-01   4.57730e-01
    87     89      1
    87     90      1
    87     97      1
    87     98      1
    87     99      1
    88     92      2   1.0000   -0.6290    0.0000   2.94976e-01   2.16155e-01
    88     93      2   1.0000   -0.6290    0.0000   2.94976e-01   2.16155e-01
    88     94      2   1.0000   -0.6290    0.0000   2.94976e-01   2.16155e-01
    88     97      1
    88     98      2   1.0000   -0.6290   -0.4030   3.12501e-01   7.11280e-01
    88     99      2   1.0000   -0.6290    0.1110   3.32484e-01   5.70591e-01
    89     91      1
    89     95      1
    89     96      1
    90     96      1
    92     95      1
    93     95      1
    94     95      1
    96    102      2   1.0000    0.2200    0.4350   1.87801e-01   2.39696e-01
    96    104      1
    96    105      2   1.0000    0.2200    0.1780   3.39967e-01   4.57730e-01
    96    110      2   1.0000    0.2200   -0.5210   3.19984e-01   5.70591e-01
    97    100      1
    97    101      1
    97    103      1
    98    100      1
    98    101      2   1.0000   -0.4030   -0.7210   3.03324e-01   7.91296e-01
    98    103      2   1.0000   -0.4030    0.4920   3.19984e-01   5.70591e-01
    99    106      1
    99    107      1
    99    108      2   1.0000    0.1110   -0.6890   3.23307e-01   6.34780e-01
    99    111      2   1.0000    0.1110    0.2370   3.39967e-01   4.57730e-01
   100    102      1
   100    104      1
   100    105      1
   100    110      1
   101    104      1
   101    105      2   1.0000   -0.7210    0.1780   3.23307e-01   6.34780e-01
   101    110      2   1.0000   -0.7210   -0.5210   3.03324e-01   7.91296e-01
   102    103      2   1.0000    0.4350    0.4920   1.87801e-01   2.39696e-01
   103    109      2   1.0000    0.4920    0.4080   1.87801e-01   2.39696e-01
   103    112      1
   103    115      2   1.0000    0.4920    0.0060   3.39967e-01   4.57730e-01
   103    134      2   1.0000    0.4920   -0.4030   3.19984e-01   5.70591e-01
   104    106      1
   104    107      1
   104    108      1
   104    111      1
   105    111      2   1.0000    0.1780    0.2370   3.39967e-01   4.57730e-01
   106    109      1
   106    110      1
   107    109      1
   107    110      1
   108    110      2   1.0000   -0.6890   -0.5210   3.03324e-01   7.91296e-01
   110    113      1
   110    114      1
   110    116      2   1.0000   -0.5210    0.0000   2.82477e-01   2.16155e-01
   110    117      2   1.0000   -0.5210    0.0000   2.82477e-01   2.16155e-01
   110    118      2   1.0000   -0.5210    0.3320   3.19984e-01   5.70591e-01
   110    132      2   1.0000   -0.5210    0.2200   3.19984e-01   5.70591e-01
   111    119      1
   111    120      2   1.0000    0.2370   -0.7620   3.23307e-01   6.34780e-01
   111    122      2   1.0000    0.2370    0.3080   3.39967e-01   4.57730e-01
   111    133      1
   111    135      2   1.0000    0.2370    0.1110   3.39967e-01   4.57730e-01
   112    116      1
   112    117      1
   112    118      1
   112    132      1
   113    115      1
   113    134      1
   114    115      1
   114    134      1
   115    121      2   1.0000    0.0060    0.4150   1.87801e-01   2.39696e-01
   115    123      1
   115    124      2   1.0000    0.0060   -0.6290   3.32484e-01   5.70591e-01
   115    132      2   1.0000    0.0060    0.2200   3.39967e-01   4.57730e-01
   116    119      1
   116    120      2   1.0000    0.0000   -0.7620   2.85800e-01   2.40472e-01
   116    122      2   1.0000    0.0000    0.3080   3.02460e-01   1.73401e-01
   116    134      2   1.0000    0.0000   -0.4030   2.82477e-01   2.16155e-01
   117    119      1
   117    120      2   1.0000    0.0000   -0.7620   2.85800e-01   2.40472e-01
   117    122      2   1.0000    0.0000    0.3080   3.02460e-01   1.73401e-01
   117    134      2   1.0000    0.0000   -0.4030   2.82477e-01   2.16155e-01
   118    125      1
   118    126      1
   118    133      1
   118    134      2   1.0000    0.3320   -0.4030   3.19984e-01   5.70591e-01
   118    135      2   1.0000    0.3320    0.1110   3.39967e-01   4.57730e-01
   119    121      1
   119    123      1
   119    124      1
   119    132      1
   120    123      1
   120    124      2   1.0000   -0.7620   -0.6290   3.15824e-01   7.91296e-01
   120    132      2   1.0000   -0.7620    0.2200   3.23307e-01   6.34780e-01
   121    122      2   1.0000    0.4150    0.3080   1.87801e-01   2.39696e-01
   122    127      2   1.0000    0.3080   -0.0030   3.39967e-01   4.57730e-01
   122    131      1
   122    136      1
   122    137      2   1.0000    0.3080   -0.7210   3.23307e-01   6.34780e-01
   122    139      2   1.0000    0.3080    0.4920   3.39967e-01   4.57730e-01
   123    125      1
   123    126      1
   123    133      1
   123    134      1
   123    135      1
   124    128      2   1.0000   -0.6290    0.0000   2.94976e-01   2.16155e-01
   124    129      2   1.0000   -0.6290    0.0000   2.94976e-01   2.16155e-01
   124    130      2   1.0000   -0.6290    0.0000   2.94976e-01   2.16155e-01
   124    133      1
   124    134      2   1.0000   -0.6290   -0.4030   3.12501e-01   7.11280e-01
   124    135      2   1.0000   -0.6290    0.1110   3.32484e-01   5.70591e-01
   125    127      1
   125    131      1
   125    132      1
   126    132      1
   128    131      1
   129    131      1
   130    131      1
   132    138      2   1.0000    0.2200    0.4350   1.87801e-01   2.39696e-01
   132    140      1
   132    141      2   1.0000    0.2200    0.1780   3.39967e-01   4.57730e-01
   132    146      2   1.0000    0.2200   -0.5210   3.19984e-01   5.70591e-01
   133    136      1
   133    137      1
   133    139      1
   134    136      1
   134    137      2   1.0000   -0.4030   -0.7210   3.03324e-01   7.91296e-01
   134    139      2   1.0000   -0.4030    0.4920   3.19984e-01   5.70591e-01
   135    142      1
   135    143      1
   135    144      2   1.0000    0.1110   -0.6890   3.23307e-01   6.34780e-01
   135    147      2   1.0000    0.1110    0.2370   3.39967e-01   4.57730e-01
   136    138      1
   136    140      1
   136    141      1
   136    146      1
   137    140      1
   137    141      2   1.0000   -0.7210    0.1780   3.23307e-01   6.34780e-01
   137    146      2   1.0000   -0.7210   -0.5210   3.03324e-01   7.91296e-01
   138    139      2   1.0000    0.4350    0.4920   1.87801e-01   2.39696e-01
   139    145      2   1.0000    0.4920    0.4080   1.87801e-01   2.39696e-01
   139    148      1
   139    151      2   1.0000    0.4920    0.0060   3.39967e-01   4.57730e-01
   139    170      2   1.0000    0.4920   -0.4030   3.19984e-01   5.70591e-01
   140    142      1
   140    143      1
   140    144      1
   140    147      1
   141    147      2   1.0000    0.1780    0.2370   3.39967e-01   4.57730e-01
   142    145      1
   142    146      1
   143    145      1
   143    146      1
   144    146      2   1.0000   -0.6890   -0.5210   3.03324e-01   7.91296e-01
   146    149      1
   146    150      1
   146    152      2   1.0000   -0.5210    0.0000   2.82477e-01   2.16155e-01
   146    153      2   1.0000   -0.5210    0.0000   2.82477e-01   2.16155e-01
   146    154      2   1.0000   -0.5210    0.3320   3.19984e-01   5.70591e-01
   146    168      2   1.0000   -0.5210    0.2200   3.19984e-01   5.70591e-01
   147    155      1
   147    156      2   1.0000    0.2370   -0.7620   3.23307e-01   6.34780e-01
   147    158      2   1.0000    0.2370    0.3080   3.39967e-01   4.57730e-01
   147    169      1
   147    171      2   1.0000    0.2370    0.1110   3.39967e-01   4.57730e-01
   148    152      1
   148    153      1
   148    154      1
   148    168      1
   149    151      1
   149    170      1
   150    151      1
   150    170      1
   151    157      2   1.0000    0.0060    0.4150   1.87801e-01   2.39696e-01
   151    159      1
   151    160      2   1.0000    0.0060   -0.6290   3.32484e-01   5.70591e-01
   151    168      2   1.0000    0.0060    0.2200   3.39967e-01   4.57730e-01
   152    155      1
   152    156      2   1.0000    0.0000   -0.7620   2.85800e-01   2.40472e-01
   152    158      2   1.0000    0.0000    0.3080   3.02460e-01   1.73401e-01
   152    170      2   1.0000    0.0000   -0.4030   2.82477e-01   2.16155e-01
   153    155      1
   153    156      2   1.0000    0.0000   -0.7620   2.85800e-01   2.40472e-01
   153    158      2   1.0000    0.0000    0.3080   3.02460e-01   1.73401e-01
   153    170      2   1.0000    0.0000   -0.4030   2.82477e-01   2.16155e-01
   154    161      1
   154    162      1
   154    169      1
   154    170      2   1.0000    0.3320   -0.4030   3.19984e-01   5.70591e-01
   154    171      2   1.0000    0.3320    0.1110   3.39967e-01   4.57730e-01
   155    157      1
   155    159      1
   155    160      1
   155    168      1
   156    159      1
   156    160      2   1.0000   -0.7620   -0.6290   3.15824e-01   7.91296e-01
   156    168      2   1.0000   -0.7620    0.2200   3.23307e-01   6.34780e-01
   157    158      2   1.0000    0.4150    0.3080   1.87801e-01   2.39696e-01
   158    163      2   1.0000    0.3080   -0.0030   3.39967e-01   4.57730e-01
   158    167      1
   158    172      1
   158    173      2   1.0000    0.3080   -0.7210   3.23307e-01   6.34780e-01
   158    175      2   1.0000    0.3080    0.4920   3.39967e-01   4.57730e-01
   159    161      1
   159    162      1
   159    169      1
   159    170      1
   159    171      1
   160    164      2   1.0000   -0.6290    0.0000   2.94976e-01   2.16155e-01
   160    165      2   1.0000   -0.6290    0.0000   2.94976e-01   2.16155e-01
   160    166      2   1.0000   -0.6290    0.0000   2.94976e-01   2.16155e-01
   160    169      1
   160    170      2   1.0000   -0.6290   -0.4030   3.12501e-01   7.11280e-01
   160    171      2   1.0000   -0.6290    0.1110   3.32484e-01   5.70591e-01
   161    163      1
   161    167      1
   161    168      1
   162    168      1
   164    167      1
   165    167      1
   166    167      1
   168    174      2   1.0000    0.2200    0.4350   1.87801e-01   2.39696e-01
   168    176      1
   168    177      2   1.0000    0.2200    0.1780   3.39967e-01   4.57730e-01
   168    182      2   1.0000    0.2200   -0.5210   3.19984e-01   5.70591e-01
   169    172      1
   169    173      1
   169    175      1
   170    172      1
   170    173      2   1.0000   -0.4030   -0.7210   3.03324e-01   7.91296e-01
   170    175      2   1.0000   -0.4030    0.4920   3.19984e-01   5.70591e-01
   171    178      1
   171    179      1
   171    180      2   1.0000    0.1110   -0.6890   3.23307e-01   6.34780e-01
   171    183      2   1.0000    0.1110    0.2370   3.39967e-01   4.57730e-01
   172    174      1
   172    176      1
   172    177      1
   172    182      1
   173    176      1
   173    177      2   1.0000   -0.7210    0.1780   3.23307e-01   6.34780e-01
   173    182      2   1.0000   -0.7210   -0.5210   3.03324e-01   7.91296e-01
   174    175      2   1.0000    0.4350    0.4920   1.87801e-01   2.39696e-01
   175    181      2   1.0000    0.4920    0.4080   1.87801e-01   2.39696e-01
   175    184      1
   175    187      2   1.0000    0.4920    0.0060   3.39967e-01   4.57730e-01
   175    206      2   1.0000    0.4920   -0.4030   3.19984e-01   5.70591e-01
   176    178      1
   176    179      1
   176    180      1
   176    183      1
   177    183      2   1.0000    0.1780    0.2370   3.39967e-01   4.57730e-01
   178    181      1
   178    182      1
   179    181      1
   179    182      1
   180    182      2   1.0000   -0.6890   -0.5210   3.03324e-01   7.91296e-01
   182    185      1
   182    186      1
   182    188      2   1.0000   -0.5210    0.0000   2.82477e-01   2.16155e-01
   182    189      2   1.0000   -0.5210    0.0000   2.82477e-01   2.16155e-01
   182    190      2   1.0000   -0.5210    0.3320   3.19984e-01   5.70591e-01
   182    204      2   1.0000   -0.5210    0.2200   3.19984e-01   5.70591e-01
   183    191      1
   183    192      2   1.0000    0.2370   -0.7620   3.23307e-01   6.34780e-01
   183    194      2   1.0000    0.2370    0.3080   3.39967e-01   4.57730e-01
   183    205      1
   183    207      2   1.0000    0.2370    0.1110   3.39967e-01   4.57730e-01
   184    188      1
   184    189      1
   184    190      1
   184    204      1
   185    187      1
   185    206      1
   186    187      1
   186    206      1
   187    193      2   1.0000    0.0060    0.4150   1.87801e-01   2.39696e-01
   187    195      1
   187    196      2   1.0000    0.0060   -0.6290   3.32484e-01   5.70591e-01
   187    204      2   1.0000    0.0060    0.2200   3.39967e-01   4.57730e-01
   188    191      1
   188    192      2   1.0000    0.0000   -0.7620   2.85800e-01   2.40472e-01
   188    194      2   1.0000    0.0000    0.3080   3.02460e-01   1.73401e-01
   188    206      2   1.0000    0.0000   -0.4030   2.82477e-01   2.16155e-01
   189    191      1
   189    192      2   1.0000    0.0000   -0.7620   2.85800e-01   2.40472e-01
   189    194      2   1.0000    0.0000    0.3080   3.02460e-01   1.73401e-01
   189    206      2   1.0000    0.0000   -0.4030   2.82477e-01   2.16155e-01
   190    197      1
   190    198      1
   190    205      1
   190    206      2   1.0000    0.3320   -0.4030   3.19984e-01   5.70591e-01
   190    207      2   1.0000    0.3320    0.1110   3.39967e-01   4.57730e-01
   191    193      1
   191    195      1
   191    196      1
   191    204      1
   192    195      1
   192    196      2   1.0000   -0.7620   -0.6290   3.15824e-01   7.91296e-01
   192    204      2   1.0000   -0.7620    0.2200   3.23307e-01   6.34780e-01
   193    194      2   1.0000    0.4150    0.3080   1.87801e-01   2.39696e-01
   194    199      2   1.0000    0.3080   -0.0030   3.39967e-01   4.57730e-01
   194    203      1
   194    208      1
   194    209      2   1.0000    0.3080   -0.7210   3.23307e-01   6.34780e-01
   194    211      2   1.0000    0.3080    0.4920   3.39967e-01   4.57730e-01
   195    197      1
   195    198      1
   195    205      1
   195    206      1
   195    207      1
   196    200      2   1.0000   -0.6290    0.0000   2.94976e-01   2.16155e-01
   196    201      2   1.0000   -0.6290    0.0000   2.94976e-01   2.16155e-01
   196    202      2   1.0000   -0.6290    0.0000   2.94976e-01   2.16155e-01
   196    205      1
   196    206      2   1.0000   -0.6290   -0.4030   3.12501e-01   7.11280e-01
   196    207      2   1.0000   -0.6290    0.1110   3.32484e-01   5.70591e-01
   197    199      1
   197    203      1
   197    204      1
   198    204      1
   200    203      1
   201    203      1
   202    203      1
   204    210      2   1.0000    0.2200    0.4350   1.87801e-01   2.39696e-01
   204    212      1
   204    213      2   1.0000    0.2200    0.1780   3.39967e-01   4.57730e-01
   204    218      2   1.0000    0.2200   -0.5210   3.19984e-01   5.70591e-01
   205    208      1
   205    209      1
   205    211      1
   206    208      1
   206    209      2   1.0000   -0.4030   -0.7210   3.03324e-01   7.91296e-01
   206    211      2   1.0000   -0.4030    0.4920   3.19984e-01   5.70591e-01
   207    214      1
   207    215      1
   207    216      2   1.0000    0.1110   -0.6890   3.23307e-01   6.34780e-01
   207    219      2   1.0000    0.1110    0.2370   3.39967e-01   4.57730e-01
   208    210      1
   208    212      1
   208    213      1
   208    218      1
   209    212      1
   209    213      2   1.0000   -0.7210    0.1780   3.23307e-01   6.34780e-01
   209    218      2   1.0000   -0.7210   -0.5210   3.03324e-01   7.91296e-01
   210    211      2   1.0000    0.4350    0.4920   1.87801e-01   2.39696e-01
   211    217      2   1.0000    0.4920    0.4080   1.87801e-01   2.39696e-01
   211    220      1
   211    223      2   1.0000    0.4920    0.0060   3.39967e-01   4.57730e-01
   211    242      2   1.0000    0.4920   -0.4030   3.19984e-01   5.70591e-01
   212    214      1
   212    215      1
   212    216      1
   212    219      1
   213    219      2   1.0000    0.1780    0.2370   3.39967e-01   4.57730e-01
   214    217      1
   214    218      1
   215    217      1
   215    218      1
   216    218      2   1.0000   -0.6890   -0.5210   3.03324e-01   7.91296e-01
   218    221      1
   218    222      1
   218    224      2   1.0000   -0.5210    0.0000   2.82477e-01   2.16155e-01
   218    225      2   1.0000   -0.5210    0.0000   2.82477e-01   2.16155e-01
   218    226      2   1.0000   -0.5210    0.3320   3.19984e-01   5.70591e-01
   218    240      2   1.0000   -0.5210    0.2200   3.19984e-01   5.70591e-01
   219    227      1
   219    228      2   1.0000    0.2370   -0.7620   3.23307e-01   6.34780e-01
   219    230      2   1.0000    0.2370    0.3080   3.39967e-01   4.57730e-01
   219    241      1
   219    243      2   1.0000    0.2370    0.1110   3.39967e-01   4.57730e-01
   220    224      1
   220    225      1
   220    226      1
   220    240      1
   221    223      1
   221    242      1
   222    223      1
   222    242      1
   223    229      2   1.0000    0.0060    0.4150   1.87801e-01   2.39696e-01
   223    231      1
   223    232      2   1.0000    0.0060   -0.6290   3.32484e-01   5.70591e-01
   223    240      2   1.0000    0.0060    0.2200   3.39967e-01   4.57730e-01
   224    227      1
   224    228      2   1.0000    0.0000   -0.7620   2.85800e-01   2.40472e-01
   224    230      2   1.0000    0.0000    0.3080   3.02460e-01   1.73401e-01
   224    242      2   1.0000    0.0000   -0.4030   2.82477e-01   2.16155e-01
   225    227      1
   225    228      2   1.0000    0.0000   -0.7620   2.85800e-01   2.40472e-01
   225    230      2   1.0000    0.0000    0.3080   3.02460e-01   1.73401e-01
   225    242      2   1.0000    0.0000   -0.4030   2.82477e-01   2.16155e-01
   226    233      1
   226    234      1
   226    241      1
   226    242      2   1.0000    0.3320   -0.4030   3.19984e-01   5.70591e-01
   226    243      2   1.0000    0.3320    0.1110   3.39967e-01   4.57730e-01
   227    229      1
   227    231      1
   227    232      1
   227    240      1
   228    231      1
   228    232      2   1.0000   -0.7620   -0.6290   3.15824e-01   7.91296e-01
   228    240      2   1.0000   -0.7620    0.2200   3.23307e-01   6.34780e-01
   229    230      2   1.0000    0.4150    0.3080   1.87801e-01   2.39696e-01
   230    235      2   1.0000    0.3080   -0.0030   3.39967e-01   4.57730e-01
   230    239      1
   230    244      1
   230    245      2   1.0000    0.3080   -0.7210   3.23307e-01   6.34780e-01
   230    247      2   1.0000    0.3080    0.4920   3.39967e-01   4.57730e-01
   231    233      1
   231    234      1
   231    241      1
   231    242      1
   231    243      1
   232    236      2   1.0000   -0.6290    0.0000   2.94976e-01   2.16155e-01
   232    237      2   1.0000   -0.6290    0.0000   2.94976e-01   2.16155e-01
   232    238      2   1.0000   -0.6290    0.0000   2.94976e-01   2.16155e-01
   232    241      1
   232    242      2   1.0000   -0.6290   -0.4030   3.12501e-01   7.11280e-01
   232    243      2   1.0000   -0.6290    0.1110   3.32484e-01   5.70591e-01
   233    235      1
   233    239      1
   233    240      1
   234    240      1
   236    239      1
   237    239      1
   238    239      1
   240    246      2   1.0000    0.2200    0.4350   1.87801e-01   2.39696e-01
   240    248      1
   240    249      2   1.0000    0.2200    0.1780   3.39967e-01   4.57730e-01
   240    254      2   1.0000    0.2200   -0.5210   3.19984e-01   5.70591e-01
   241    244      1
   241    245      1
   241    247      1
   242    244      1
   242    245      2   1.0000   -0.4030   -0.7210   3.03324e-01   7.91296e-01
   242    247      2   1.0000   -0.4030    0.4920   3.19984e-01   5.70591e-01
   243    250      1
   243    251      1
   243    252      2   1.0000    0.1110   -0.6890   3.23307e-01   6.34780e-01
   243    255      2   1.0000    0.1110    0.2370   3.39967e-01   4.57730e-01
   244    246      1
   244    248      1
   244    249      1
   244    254      1
   245    248      1
   245    249      2   1.0000   -0.7210    0.1780   3.23307e-01   6.34780e-01
   245    254      2   1.0000   -0.7210   -0.5210   3.03324e-01   7.91296e-01
   246    247      2   1.0000    0.4350    0.4920   1.87801e-01   2.39696e-01
   247    253      2   1.0000    0.4920    0.4080   1.87801e-01   2.39696e-01
   247    256      1
   247    259      2   1.0000    0.4920    0.0060   3.39967e-01   4.57730e-01
   247    278      2   1.0000    0.4920   -0.4030   3.19984e-01   5.70591e-01
   248    250      1
   248    251      1
   248    252      1
   248    255      1
   249    255      2   1.0000    0.1780    0.2370   3.39967e-01   4.57730e-01
   250    253      1
   250    254      1
   251    253      1
   251    254      1
   252    254      2   1.0000   -0.6890   -0.5210   3.03324e-01   7.91296e-01
   254    257      1
   254    258      1
   254    260      2   1.0000   -0.5210    0.0000   2.82477e-01   2.16155e-01
   254    261      2   1.0000   -0.5210    0.0000   2.82477e-01   2.16155e-01
   254    262      2   1.0000   -0.5210    0.3320   3.19984e-01   5.70591e-01
   254    276      2   1.0000   -0.5210    0.2200   3.19984e-01   5.70591e-01
   255    263      1
   255    264      2   1.0000    0.2370   -0.7620   3.23307e-01   6.34780e-01
   255    266      2   1.0000    0.2370    0.3080   3.39967e-01   4.57730e-01
   255    277      1
   255    279      2   1.0000    0.2370    0.1110   3.39967e-01   4.57730e-01
   256    260      1
   256    261      1
   256    262      1
   256    276      1
   257    259      1
   257    278      1
   258    259      1
   258    278      1
   259    265      2   1.0000    0.0060    0.4150   1.87801e-01   2.39696e-01
   259    267      1
   259    268      2   1.0000    0.0060   -0.6290   3.32484e-01   5.70591e-01
   259    276      2   1.0000    0.0060    0.2200   3.39967e-01   4.57730e-01
   260    263      1
   260    264      2   1.0000    0.0000   -0.7620   2.85800e-01   2.40472e-01
   260    266      2   1.0000    0.0000    0.3080   3.02460e-01   1.73401e-01
   260    278      2   1.0000    0.0000   -0.4030   2.82477e-01   2.16155e-01
   261    263      1
   261    264      2   1.0000    0.0000   -0.7620   2.85800e-01   2.40472e-01
   261    266      2   1.0000    0.0000    0.3080   3.02460e-01   1.73401e-01
   261    278      2   1.0000    0.0000   -0.4030   2.82477e-01   2.16155e-01
   262    269      1
   262    270      1
   262    277      1
   262    278      2   1.0000    0.3320   -0.4030   3.19984e-01   5.70591e-01
   262    279      2   1.0000    0.3320    0.1110   3.39967e-01   4.57730e-01
   263    265      1
   263    267      1
   263    268      1
   263    276      1
   264    267      1
   264    268      2   1.0000   -0.7620   -0.6290   3.15824e-01   7.91296e-01
   264    276      2   1.0000   -0.7620    0.2200   3.23307e-01   6.34780e-01
   265    266      2   1.0000    0.4150    0.3080   1.87801e-01   2.39696e-01
   266    271      2   1.0000    0.3080   -0.0030   3.39967e-01   4.57730e-01
   266    275      1
   266    280      1
   266    281      2   1.0000    0.3080   -0.7210   3.23307e-01   6.34780e-01
   266    283      2   1.0000    0.3080    0.4920   3.39967e-01   4.57730e-01
   267    269      1
   267    270      1
   267    277      1
   267    278      1
   267    279      1
   268    272      2   1.0000   -0.6290    0.0000   2.94976e-01   2.16155e-01
   268    273      2   1.0000   -0.6290    0.0000   2.94976e-01   2.16155e-01
   268    274      2   1.0000   -0.6290    0.0000   2.94976e-01   2.16155e-01
   268    277      1
   268    278      2   1.0000   -0.6290   -0.4030   3.12501e-01   7.11280e-01
   268    279      2   1.0000   -0.6290    0.1110   3.32484e-01   5.70591e-01
   269    271      1
   269    275      1
   269    276      1
   270    276      1
   272    275      1
   273    275      1
   274    275      1
   276    282      2   1.0000    0.2200    0.4350   1.87801e-01   2.39696e-01
   276    284      1
   276    285      2   1.0000    0.2200    0.1780   3.39967e-01   4.57730e-01
   276    290      2   1.0000    0.2200   -0.5210   3.19984e-01   5.70591e-01
   277    280      1
   277    281      1
   277    283      1
   278    280      1
   278    281      2   1.0000   -0.4030   -0.7210   3.03324e-01   7.91296e-01
   278    283      2   1.0000   -0.4030    0.4920   3.19984e-01   5.70591e-01
   279    286      1
   279    287      1
   279    288      2   1.0000    0.1110   -0.6890   3.23307e-01   6.34780e-01
   279    291      2   1.0000    0.1110    0.2370   3.39967e-01   4.57730e-01
   280    282      1
   280    284      1
   280    285      1
   280    290      1
   281    284      1
   281    285      2   1.0000   -0.7210    0.1780   3.23307e-01   6.34780e-01
   281    290      2   1.0000   -0.7210   -0.5210   3.03324e-01   7.91296e-01
   282    283      2   1.0000    0.4350    0.4920   1.87801e-01   2.39696e-01
   283    289      2   1.0000    0.4920    0.4080   1.87801e-01   2.39696e-01
   283    292      1
   283    295      2   1.0000    0.4920    0.0060   3.39967e-01   4.57730e-01
   283    314      2   1.0000    0.4920   -0.4030   3.19984e-01   5.70591e-01
   284    286      1
   284    287      1
   284    288      1
   284    291      1
   285    291      2   1.0000    0.1780    0.2370   3.39967e-01   4.57730e-01
   286    289      1
   286    290      1
   287    289      1
   287    290      1
   288    290      2   1.0000   -0.6890   -0.5210   3.03324e-01   7.91296e-01
   290    293      1
   290    294      1
   290    296      2   1.0000   -0.5210    0.0000   2.82477e-01   2.16155e-01
   290    297      2   1.0000   -0.5210    0.0000   2.82477e-01   2.16155e-01
   290    298      2   1.0000   -0.5210    0.3320   3.19984e-01   5.70591e-01
   290    312      2   1.0000   -0.5210    0.2200   3.19984e-01   5.70591e-01
   291    299      1
   291    300      2   1.0000    0.2370   -0.7620   3.23307e-01   6.34780e-01
   291    302      2   1.0000    0.2370    0.3080   3.39967e-01   4.57730e-01
   291    313      1
   291    315      2   1.0000    0.2370    0.1110   3.39967e-01   4.57730e-01
   292    296      1
   292    297      1
   292    298      1
   292    312      1
   293    295      1
   293    314      1
   294    295      1
   294    314      1
   295    301      2   1.0000    0.0060    0.4150   1.87801e-01   2.39696e-01
   295    303      1
   295    304      2   1.0000    0.0060   -0.6290   3.32484e-01   5.70591e-01
   295    312      2   1.0000    0.0060    0.2200   3.39967e-01   4.57730e-01
   296    299      1
   296    300      2   1.0000    0.0000   -0.7620   2.85800e-01   2.40472e-01
   296    302      2   1.0000    0.0000    0.3080   3.02460e-01   1.73401e-01
   296    314      2   1.0000    0.0000   -0.4030   2.82477e-01   2.16155e-01
   297    299      1
   297    300      2   1.0000    0.0000   -0.7620   2.85800e-01   2.40472e-01
   297    302      2   1.0000    0.0000    0.3080   3.02460e-01   1.73401e-01
   297    314      2   1.0000    0.0000   -0.4030   2.82477e-01   2.16155e-01
   298    305      1
   298    306      1
   298    313      1
   298    314      2   1.0000    0.3320   -0.4030   3.19984e-01   5.70591e-01
   298    315      2   1.0000    0.3320    0.1110   3.39967e-01   4.57730e-01
   299    301      1
   299    303      1
   299    304      1
   299    312      1
   300    303      1
   300    304      2   1.0000   -0.7620   -0.6290   3.15824e-01   7.91296e-01
   300    312      2   1.0000   -0.7620    0.2200   3.23307e-01   6.34780e-01
   301    302      2   1.0000    0.4150    0.3080   1.87801e-01   2.39696e-01
   302    307      2   1.0000    0.3080   -0.0030   3.39967e-01   4.57730e-01
   302    311      1
   302    316      1
   302    317      2   1.0000    0.3080   -0.7210   3.23307e-01   6.34780e-01
   302    319      2   1.0000    0.3080    0.4920   3.39967e-01   4.57730e-01
   303    305      1
   303    306      1
   303    313      1
   303    314      1
   303    315      1
   304    308      2   1.0000   -0.6290    0.0000   2.94976e-01   2.16155e-01
   304    309      2   1.0000   -0.6290    0.0000   2.94976e-01   2.16155e-01
   304    310      2   1.0000   -0.6290    0.0000   2.94976e-01   2.16155e-01
   304    313      1
   304    314      2   1.0000   -0.6290   -0.4030   3.12501e-01   7.11280e-01
   304    315      2   1.0000   -0.6290    0.1110   3.32484e-01   5.70591e-01
   305    307      1
   305    311      1
   305    312      1
   306    312      1
   308    311      1
   309    311      1
   310    311      1
   312    318      2   1.0000    0.2200    0.4350   1.87801e-01   2.39696e-01
   312    320      1
   312    321      2   1.0000    0.2200    0.1780   3.39967e-01   4.57730e-01
   312    326      2   1.0000    0.2200   -0.5210   3.19984e-01   5.70591e-01
   313    316      1
   313    317      1
   313    319      1
   314    316      1
   314    317      2   1.0000   -0.4030   -0.7210   3.03324e-01   7.91296e-01
   314    319      2   1.0000   -0.4030    0.4920   3.19984e-01   5.70591e-01
   315    322      1
   315    323      1
   315    324      2   1.0000    0.1110   -0.6890   3.23307e-01   6.34780e-01
   315    327      2   1.0000    0.1110    0.2370   3.39967e-01   4.57730e-01
   316    318      1
   316    320      1
   316    321      1
   316    326      1
   317    320      1
   317    321      2   1.0000   -0.7210    0.1780   3.23307e-01   6.34780e-01
   317    326      2   1.0000   -0.7210   -0.5210   3.03324e-01   7.91296e-01
   318    319      2   1.0000    0.4350    0.4920   1.87801e-01   2.39696e-01
   319    325      2   1.0000    0.4920    0.4080   1.87801e-01   2.39696e-01
   319    328      1
   319    331      2   1.0000    0.4920    0.0060   3.39967e-01   4.57730e-01
   319    353      2   1.0000    0.4920   -0.4030   3.19984e-01   5.70591e-01
   320    322      1
   320    323      1
   320    324      1
   320    327      1
   321    327      2   1.0000    0.1780    0.2370   3.39967e-01   4.57730e-01
   322    325      1
   322    326      1
   323    325      1
   323    326      1
   324    326      2   1.0000   -0.6890   -0.5210   3.03324e-01   7.91296e-01
   326    329      1
   326    330      1
   326    332      2   1.0000   -0.5210    0.0000   2.82477e-01   2.16155e-01
   326    333      2   1.0000   -0.5210    0.0000   2.82477e-01   2.16155e-01
   326    334      2   1.0000   -0.5210    0.3320   3.19984e-01   5.70591e-01
   326    338      2   1.0000   -0.5210    0.2200   3.19984e-01   5.70591e-01
   327    335      1
   327    336      2   1.0000    0.2370    0.3080   3.39967e-01   4.57730e-01
   327    339      1
   327    340      2   1.0000    0.2370    0.1110   3.39967e-01   4.57730e-01
   327    362      2   1.0000    0.2370   -0.7620   3.23307e-01   6.34780e-01
   328    332      1
   328    333      1
   328    334      1
   328    338      1
   329    331      1
   329    353      1
   330    331      1
   330    353      1
   331    337      1
   331    338      2   1.0000    0.0060    0.2200   3.39967e-01   4.57730e-01
   331    354      2   1.0000    0.0060   -0.6290   3.32484e-01   5.70591e-01
   331    363      2   1.0000    0.0060    0.4150   1.87801e-01   2.39696e-01
   332    335      1
   332    336      2   1.0000    0.0000    0.3080   3.02460e-01   1.73401e-01
   332    353      2   1.0000    0.0000   -0.4030   2.82477e-01   2.16155e-01
   332    362      2   1.0000    0.0000   -0.7620   2.85800e-01   2.40472e-01
   333    335      1
   333    336      2   1.0000    0.0000    0.3080   3.02460e-01   1.73401e-01
   333    353      2   1.0000    0.0000   -0.4030   2.82477e-01   2.16155e-01
   333    362      2   1.0000    0.0000   -0.7620   2.85800e-01   2.40472e-01
   334    339      1
   334    340      2   1.0000    0.3320    0.1110   3.39967e-01   4.57730e-01
   334    353      2   1.0000    0.3320   -0.4030   3.19984e-01   5.70591e-01
   334    355      1
   334    356      1
   335    337      1
   335    338      1
   335    354      1
   335    363      1
   336    341      1
   336    342      2   1.0000    0.3080    0.4920   3.39967e-01   4.57730e-01
   336    351      2   1.0000    0.3080   -0.7210   3.23307e-01   6.34780e-01
   336    357      2   1.0000    0.3080   -0.0030   3.39967e-01   4.57730e-01
   336    361      1
   336    363      2   1.0000    0.3080    0.4150   1.87801e-01   2.39696e-01
   337    339      1
   337    340      1
   337    353      1
   337    355      1
   337    356      1
   337    362      1
   338    343      1
   338    344      2   1.0000    0.2200    0.1780   3.39967e-01   4.57730e-01
   338    349      2   1.0000    0.2200   -0.7390   3.23307e-01   6.34780e-01
   338    352      2   1.0000    0.2200    0.4350   1.87801e-01   2.39696e-01
   338    355      1
   338    356      1
   338    362      2   1.0000    0.2200   -0.7620   3.23307e-01   6.34780e-01
   339    341      1
   339    342      1
   339    351      1
   339    354      1
   340    345      1
   340    346      1
   340    347      2   1.0000    0.1110   -0.6890   3.23307e-01   6.34780e-01
   340    350      2   1.0000    0.1110    0.4120   1.87801e-01   2.39696e-01
   340    354      2   1.0000    0.1110   -0.6290   3.32484e-01   5.70591e-01
   341    343      1
   341    344      1
   341    349      1
   341    352      1
   341    353      1
   342    348      2   1.0000    0.4920    0.4080   1.87801e-01   2.39696e-01
   342    352      2   1.0000    0.4920    0.4350   1.87801e-01   2.39696e-01
   342    353      2   1.0000    0.4920   -0.4030   3.19984e-01   5.70591e-01
   343    345      1
   343    346      1
   343    347      1
   343    350      1
   343    351      1
   344    350      2   1.0000    0.1780    0.4120   1.87801e-01   2.39696e-01
   344    351      2   1.0000    0.1780   -0.7210   3.23307e-01   6.34780e-01
   345    348      1
   345    349      1
   346    348      1
   346    349      1
   347    349      2   1.0000   -0.6890   -0.7390   3.06647e-01   8.80314e-01
   349    351      2   1.0000   -0.7390   -0.7210   3.06647e-01   8.80314e-01
   351    353      2   1.0000   -0.7210   -0.4030   3.03324e-01   7.91296e-01
   353    354      2   1.0000   -0.4030   -0.6290   3.12501e-01   7.11280e-01
   354    358      2   1.0000   -0.6290    0.0000   2.94976e-01   2.16155e-01
   354    359      2   1.0000   -0.6290    0.0000   2.94976e-01   2.16155e-01
   354    360      2   1.0000   -0.6290    0.0000   2.94976e-01   2.16155e-01
   354    362      2   1.0000   -0.6290   -0.7620   3.15824e-01   7.91296e-01
   355    357      1
   355    361      1
   358    361      1
   359    361      1
   360    361      1

[ angles ]
;    ai    aj     ak   funct   c0   c1
     1      2      3      1
     2      3      4      1
     2      3      7      1
     2      3     26      1
     4      3      7      1
     4      3     26      1
     7      3     26      1
     3      4      5      1
     3      4      6      1
     5      4      6      1
     3      7      8      1
     3      7      9      1
     3      7     10      1
     8      7      9      1
     8      7     10      1
     9      7     10      1
     7     10     11      1
     7     10     12      1
     7     10     14      1
    11     10     12      1
    11     10     14      1
    12     10     14      1
    10     12     13      1
    10     14     15      1
    10     14     16      1
    10     14     24      1
    15     14     16      1
    15     14     24      1
    16     14     24      1
    14     16     17      1
    14     16     18      1
    17     16     18      1
    16     18     19      1
    16     18     23      1
    19     18     23      1
    18     19     20      1
    18     19     21      1
    18     19     22      1
    20     19     21      1
    20     19     22      1
    21     19     22      1
    14     24     25      1
    14     24     26      1
    14     24     27      1
    25     24     26      1
    25     24     27      1
    26     24     27      1
     3     26     24      1
    24     27     28      1
    24     27     29      1
    24     27     31      1
    28     27     29      1
    28     27     31      1
    29     27     31      1
    27     29     30      1
    27     31     32      1
    27     31     33      1
    27     31     38      1
    32     31     33      1
    32     31     38      1
    33     31     38      1
    31     33     34      1
    31     33     35      1
    31     33     36      1
    34     33     35      1
    34     33     36      1
    35     33     36      1
    33     36     37      1
    31     38     39      1
    38     39     40      1
    38     39     43      1
    38     39     62      1
    40     39     43      1
    40     39     62      1
    43     39     62      1
    39     40     41      1
    39     40     42      1
    41     40     42      1
    39     43     44      1
    39     43     45      1
    39     43     46      1
    44     43     45      1
    44     43     46      1
    45     43     46      1
    43     46     47      1
    43     46     48      1
    43     46     50      1
    47     46     48      1
    47     46     50      1
    48     46     50      1
    46     48     49      1
    46     50     51      1
    46     50     52      1
    46     50     60      1
    51     50     52      1
    51     50     60      1
    52     50     60      1
    50     52     53      1
    50     52     54      1
    53     52     54      1
    52     54     55      1
    52     54     59      1
    55     54     59      1
    54     55     56      1
    54     55     57      1
    54     55     58      1
    56     55     57      1
    56     55     58      1
    57     55     58      1
    50     60     61      1
    50     60     62      1
    50     60     63      1
    61     60     62      1
    61     60     63      1
    62     60     63      1
    39     62     60      1
    60     63     64      1
    60     63     65      1
    60     63     67      1
    64     63     65      1
    64     63     67      1
    65     63     67      1
    63     65     66      1
    63     67     68      1
    63     67     69      1
    63     67     74      1
    68     67     69      1
    68     67     74      1
    69     67     74      1
    67     69     70      1
    67     69     71      1
    67     69     72      1
    70     69     71      1
    70     69     72      1
    71     69     72      1
    69     72     73      1
    67     74     75      1
    74     75     76      1
    74     75     79      1
    74     75     98      1
    76     75     79      1
    76     75     98      1
    79     75     98      1
    75     76     77      1
    75     76     78      1
    77     76     78      1
    75     79     80      1
    75     79     81      1
    75     79     82      1
    80     79     81      1
    80     79     82      1
    81     79     82      1
    79     82     83      1
    79     82     84      1
    79     82     86      1
    83     82     84      1
    83     82     86      1
    84     82     86      1
    82     84     85      1
    82     86     87      1
    82     86     88      1
    82     86     96      1
    87     86     88      1
    87     86     96      1
    88     86     96      1
    86     88     89      1
    86     88     90      1
    89     88     90      1
    88     90     91      1
    88     90     95      1
    91     90     95      1
    90     91     92      1
    90     91     93      1
    90     91     94      1
    92     91     93      1
    92     91     94      1
    93     91     94      1
    86     96     97      1
    86     96     98      1
    86     96     99      1
    97     96     98      1
    97     96     99      1
    98     96     99      1
    75     98     96      1
    96     99    100      1
    96     99    101      1
    96     99    103      1
   100     99    101      1
   100     99    103      1
   101     99    103      1
    99    101    102      1
    99    103    104      1
    99    103    105      1
    99    103    110      1
   104    103    105      1
   104    103    110      1
   105    103    110      1
   103    105    106      1
   103    105    107      1
   103    105    108      1
   106    105    107      1
   106    105    108      1
   107    105    108      1
   105    108    109      1
   103    110    111      1
   110    111    112      1
   110    111    115      1
   110    111    134      1
   112    111    115      1
   112    111    134      1
   115    111    134      1
   111    112    113      1
   111    112    114      1
   113    112    114      1
   111    115    116      1
   111    115    117      1
   111    115    118      1
   116    115    117      1
   116    115    118      1
   117    115    118      1
   115    118    119      1
   115    118    120      1
   115    118    122      1
   119    118    120      1
   119    118    122      1
   120    118    122      1
   118    120    121      1
   118    122    123      1
   118    122    124      1
   118    122    132      1
   123    122    124      1
   123    122    132      1
   124    122    132      1
   122    124    125      1
   122    124    126      1
   125    124    126      1
   124    126    127      1
   124    126    131      1
   127    126    131      1
   126    127    128      1
   126    127    129      1
   126    127    130      1
   128    127    129      1
   128    127    130      1
   129    127    130      1
   122    132    133      1
   122    132    134      1
   122    132    135      1
   133    132    134      1
   133    132    135      1
   134    132    135      1
   111    134    132      1
   132    135    136      1
   132    135    137      1
   132    135    139      1
   136    135    137      1
   136    135    139      1
   137    135    139      1
   135    137    138      1
   135    139    140      1
   135    139    141      1
   135    139    146      1
   140    139    141      1
   140    139    146      1
   141    139    146      1
   139    141    142      1
   139    141    143      1
   139    141    144      1
   142    141    143      1
   142    141    144      1
   143    141    144      1
   141    144    145      1
   139    146    147      1
   146    147    148      1
   146    147    151      1
   146    147    170      1
   148    147    151      1
   148    147    170      1
   151    147    170      1
   147    148    149      1
   147    148    150      1
   149    148    150      1
   147    151    152      1
   147    151    153      1
   147    151    154      1
   152    151    153      1
   152    151    154      1
   153    151    154      1
   151    154    155      1
   151    154    156      1
   151    154    158      1
   155    154    156      1
   155    154    158      1
   156    154    158      1
   154    156    157      1
   154    158    159      1
   154    158    160      1
   154    158    168      1
   159    158    160      1
   159    158    168      1
   160    158    168      1
   158    160    161      1
   158    160    162      1
   161    160    162      1
   160    162    163      1
   160    162    167      1
   163    162    167      1
   162    163    164      1
   162    163    165      1
   162    163    166      1
   164    163    165      1
   164    163    166      1
   165    163    166      1
   158    168    169      1
   158    168    170      1
   158    168    171      1
   169    168    170      1
   169    168    171      1
   170    168    171      1
   147    170    168      1
   168    171    172      1
   168    171    173      1
   168    171    175      1
   172    171    173      1
   172    171    175      1
   173    171    175      1
   171    173    174      1
   171    175    176      1
   171    175    177      1
   171    175    182      1
   176    175    177      1
   176    175    182      1
   177    175    182      1
   175    177    178      1
   175    177    179      1
   175    177    180      1
   178    177    179      1
   178    177    180      1
   179    177    180      1
   177    180    181      1
   175    182    183      1
   182    183    184      1
   182    183    187      1
   182    183    206      1
   184    183    187      1
   184    183    206      1
   187    183    206      1
   183    184    185      1
   183    184    186      1
   185    184    186      1
   183    187    188      1
   183    187    189      1
   183    187    190      1
   188    187    189      1
   188    187    190      1
   189    187    190      1
   187    190    191      1
   187    190    192      1
   187    190    194      1
   191    190    192      1
   191    190    194      1
   192    190    194      1
   190    192    193      1
   190    194    195      1
   190    194    196      1
   190    194    204      1
   195    194    196      1
   195    194    204      1
   196    194    204      1
   194    196    197      1
   194    196    198      1
   197    196    198      1
   196    198    199      1
   196    198    203      1
   199    198    203      1
   198    199    200      1
   198    199    201      1
   198    199    202      1
   200    199    201      1
   200    199    202      1
   201    199    202      1
   194    204    205      1
   194    204    206      1
   194    204    207      1
   205    204    206      1
   205    204    207      1
   206    204    207      1
   183    206    204      1
   204    207    208      1
   204    207    209      1
   204    207    211      1
   208    207    209      1
   208    207    211      1
   209    207    211      1
   207    209    210      1
   207    211    212      1
   207    211    213      1
   207    211    218      1
   212    211    213      1
   212    211    218      1
   213    211    218      1
   211    213    214      1
   211    213    215      1
   211    213    216      1
   214    213    215      1
   214    213    216      1
   215    213    216      1
   213    216    217      1
   211    218    219      1
   218    219    220      1
   218    219    223      1
   218    219    242      1
   220    219    223      1
   220    219    242      1
   223    219    242      1
   219    220    221      1
   219    220    222      1
   221    220    222      1
   219    223    224      1
   219    223    225      1
   219    223    226      1
   224    223    225      1
   224    223    226      1
   225    223    226      1
   223    226    227      1
   223    226    228      1
   223    226    230      1
   227    226    228      1
   227    226    230      1
   228    226    230      1
   226    228    229      1
   226    230    231      1
   226    230    232      1
   226    230    240      1
   231    230    232      1
   231    230    240      1
   232    230    240      1
   230    232    233      1
   230    232    234      1
   233    232    234      1
   232    234    235      1
   232    234    239      1
   235    234    239      1
   234    235    236      1
   234    235    237      1
   234    235    238      1
   236    235    237      1
   236    235    238      1
   237    235    238      1
   230    240    241      1
   230    240    242      1
   230    240    243      1
   241    240    242      1
   241    240    243      1
   242    240    243      1
   219    242    240      1
   240    243    244      1
   240    243    245      1
   240    243    247      1
   244    243    245      1
   244    243    247      1
   245    243    247      1
   243    245    246      1
   243    247    248      1
   243    247    249      1
   243    247    254      1
   248    247    249      1
   248    247    254      1
   249    247    254      1
   247    249    250      1
   247    249    251      1
   247    249    252      1
   250    249    251      1
   250    249    252      1
   251    249    252      1
   249    252    253      1
   247    254    255      1
   254    255    256      1
   254    255    259      1
   254    255    278      1
   256    255    259      1
   256    255    278      1
   259    255    278      1
   255    256    257      1
   255    256    258      1
   257    256    258      1
   255    259    260      1
   255    259    261      1
   255    259    262      1
   260    259    261      1
   260    259    262      1
   261    259    262      1
   259    262    263      1
   259    262    264      1
   259    262    266      1
   263    262    264      1
   263    262    266      1
   264    262    266      1
   262    264    265      1
   262    266    267      1
   262    266    268      1
   262    266    276      1
   267    266    268      1
   267    266    276      1
   268    266    276      1
   266    268    269      1
   266    268    270      1
   269    268    270      1
   268    270    271      1
   268    270    275      1
   271    270    275      1
   270    271    272      1
   270    271    273      1
   270    271    274      1
   272    271    273      1
   272    271    274      1
   273    271    274      1
   266    276    277      1
   266    276    278      1
   266    276    279      1
   277    276    278      1
   277    276    279      1
   278    276    279      1
   255    278    276      1
   276    279    280      1
   276    279    281      1
   276    279    283      1
   280    279    281      1
   280    279    283      1
   281    279    283      1
   279    281    282      1
   279    283    284      1
   279    283    285      1
   279    283    290      1
   284    283    285      1
   284    283    290      1
   285    283    290      1
   283    285    286      1
   283    285    287      1
   283    285    288      1
   286    285    287      1
   286    285    288      1
   287    285    288      1
   285    288    289      1
   283    290    291      1
   290    291    292      1
   290    291    295      1
   290    291    314      1
   292    291    295      1
   292    291    314      1
   295    291    314      1
   291    292    293      1
   291    292    294      1
   293    292    294      1
   291    295    296      1
   291    295    297      1
   291    295    298      1
   296    295    297      1
   296    295    298      1
   297    295    298      1
   295    298    299      1
   295    298    300      1
   295    298    302      1
   299    298    300      1
   299    298    302      1
   300    298    302      1
   298    300    301      1
   298    302    303      1
   298    302    304      1
   298    302    312      1
   303    302    304      1
   303    302    312      1
   304    302    312      1
   302    304    305      1
   302    304    306      1
   305    304    306      1
   304    306    307      1
   304    306    311      1
   307    306    311      1
   306    307    308      1
   306    307    309      1
   306    307    310      1
   308    307    309      1
   308    307    310      1
   309    307    310      1
   302    312    313      1
   302    312    314      1
   302    312    315      1
   313    312    314      1
   313    312    315      1
   314    312    315      1
   291    314    312      1
   312    315    316      1
   312    315    317      1
   312    315    319      1
   316    315    317      1
   316    315    319      1
   317    315    319      1
   315    317    318      1
   315    319    320      1
   315    319    321      1
   315    319    326      1
   320    319    321      1
   320    319    326      1
   321    319    326      1
   319    321    322      1
   319    321    323      1
   319    321    324      1
   322    321    323      1
   322    321    324      1
   323    321    324      1
   321    324    325      1
   319    326    327      1
   326    327    328      1
   326    327    331      1
   326    327    353      1
   328    327    331      1
   328    327    353      1
   331    327    353      1
   327    328    329      1
   327    328    330      1
   329    328    330      1
   327    331    332      1
   327    331    333      1
   327    331    334      1
   332    331    333      1
   332    331    334      1
   333    331    334      1
   331    334    335      1
   331    334    336      1
   331    334    362      1
   335    334    336      1
   335    334    362      1
   336    334    362      1
   334    336    337      1
   334    336    338      1
   334    336    354      1
   337    336    338      1
   337    336    354      1
   338    336    354      1
   336    338    339      1
   336    338    340      1
   336    338    353      1
   339    338    340      1
   339    338    353      1
   340    338    353      1
   338    340    341      1
   338    340    342      1
   338    340    351      1
   341    340    342      1
   341    340    351      1
   342    340    351      1
   340    342    343      1
   340    342    344      1
   340    342    349      1
   343    342    344      1
   343    342    349      1
   344    342    349      1
   342    344    345      1
   342    344    346      1
   342    344    347      1
   345    344    346      1
   345    344    347      1
   346    344    347      1
   344    347    348      1
   342    349    350      1
   340    351    352      1
   327    353    338      1
   336    354    355      1
   336    354    356      1
   355    354    356      1
   354    356    357      1
   354    356    361      1
   357    356    361      1
   356    357    358      1
   356    357    359      1
   356    357    360      1
   358    357    359      1
   358    357    360      1
   359    357    360      1
   334    362    363      1

[ dihedrals ]
;   ai     aj     ak     al  funct
     1      2      3      4      9
     1      2      3      7      9
     1      2      3     26      9
     2      3      4      5      9
     2      3      4      6      9
     7      3      4      5      9
     7      3      4      6      9
    26      3      4      5      9
    26      3      4      6      9
     2      3      7      8      9
     2      3      7      9      9
     2      3      7     10      9
     4      3      7      8      9
     4      3      7      9      9
     4      3      7     10      9
    26      3      7      8      9
    26      3      7      9      9
    26      3      7     10      9
     2      3     26     24      9
     4      3     26     24      9
     7      3     26     24      9
     3      7     10     11      9
     3      7     10     12      9
     3      7     10     14      9
     8      7     10     11      9
     8      7     10     12      9
     8      7     10     14      9
     9      7     10     11      9
     9      7     10     12      9
     9      7     10     14      9
     7     10     12     13      9
    11     10     12     13      9
    14     10     12     13      9
     7     10     14     15      9
     7     10     14     16      9
     7     10     14     24      9
    11     10     14     15      9
    11     10     14     16      9
    11     10     14     24      9
    12     10     14     15      9
    12     10     14     16      9
    12     10     14     24      9
    10     14     16     17      9
    10     14     16     18      9
    15     14     16     17      9
    15     14     16     18      9
    24     14     16     17      9
    24     14     16     18      9
    10     14     24     25      9
    10     14     24     26      9
    10     14     24     27      9
    15     14     24     25      9
    15     14     24     26      9
    15     14     24     27      9
    16     14     24     25      9
    16     14     24     26      9
    16     14     24     27      9
    14     16     18     19      9
    14     16     18     23      9
    17     16     18     19      9
    17     16     18     23      9
    16     18     19     20      9
    16     18     19     21      9
    16     18     19     22      9
    23     18     19     20      9
    23     18     19     21      9
    23     18     19     22      9
    14     24     26      3      9
    25     24     26      3      9
    27     24     26      3      9
    14     24     27     28      9
    14     24     27     29      9
    14     24     27     31      9
    25     24     27     28      9
    25     24     27     29      9
    25     24     27     31      9
    26     24     27     28      9
    26     24     27     29      9
    26     24     27     31      9
    24     27     29     30      9
    28     27     29     30      9
    31     27     29     30      9
    24     27     31     32      9
    24     27     31     33      9
    24     27     31     38      9
    28     27     31     32      9
    28     27     31     33      9
    28     27     31     38      9
    29     27     31     32      9
    29     27     31     33      9
    29     27     31     38      9
    27     31     33     34      9
    27     31     33     35      9
    27     31     33     36      9
    32     31     33     34      9
    32     31     33     35      9
    32     31     33     36      9
    38     31     33     34      9
    38     31     33     35      9
    38     31     33     36      9
    27     31     38     39      9
    32     31     38     39      9
    33     31     38     39      9
    31     33     36     37      9
    34     33     36     37      9
    35     33     36     37      9
    31     38     39     40      9
    31     38     39     43      9
    31     38     39     62      9
    38     39     40     41      9
    38     39     40     42      9
    43     39     40     41      9
    43     39     40     42      9
    62     39     40     41      9
    62     39     40     42      9
    38     39     43     44      9
    38     39     43     45      9
    38     39     43     46      9
    40     39     43     44      9
    40     39     43     45      9
    40     39     43     46      9
    62     39     43     44      9
    62     39     43     45      9
    62     39     43     46      9
    38     39     62     60      9
    40     39     62     60      9
    43     39     62     60      9
    39     43     46     47      9
    39     43     46     48      9
    39     43     46     50      9
    44     43     46     47      9
    44     43     46     48      9
    44     43     46     50      9
    45     43     46     47      9
    45     43     46     48      9
    45     43     46     50      9
    43     46     48     49      9
    47     46     48     49      9
    50     46     48     49      9
    43     46     50     51      9
    43     46     50     52      9
    43     46     50     60      9
    47     46     50     51      9
    47     46     50     52      9
    47     46     50     60      9
    48     46     50     51      9
    48     46     50     52      9
    48     46     50     60      9
    46     50     52     53      9
    46     50     52     54      9
    51     50     52     53      9
    51     50     52     54      9
    60     50     52     53      9
    60     50     52     54      9
    46     50     60     61      9
    46     50     60     62      9
    46     50     60     63      9
    51     50     60     61      9
    51     50     60     62      9
    51     50     60     63      9
    52     50     60     61      9
    52     50     60     62      9
    52     50     60     63      9
    50     52     54     55      9
    50     52     54     59      9
    53     52     54     55      9
    53     52     54     59      9
    52     54     55     56      9
    52     54     55     57      9
    52     54     55     58      9
    59     54     55     56      9
    59     54     55     57      9
    59     54     55     58      9
    50     60     62     39      9
    61     60     62     39      9
    63     60     62     39      9
    50     60     63     64      9
    50     60     63     65      9
    50     60     63     67      9
    61     60     63     64      9
    61     60     63     65      9
    61     60     63     67      9
    62     60     63     64      9
    62     60     63     65      9
    62     60     63     67      9
    60     63     65     66      9
    64     63     65     66      9
    67     63     65     66      9
    60     63     67     68      9
    60     63     67     69      9
    60     63     67     74      9
    64     63     67     68      9
    64     63     67     69      9
    64     63     67     74      9
    65     63     67     68      9
    65     63     67     69      9
    65     63     67     74      9
    63     67     69     70      9
    63     67     69     71      9
    63     67     69     72      9
    68     67     69     70      9
    68     67     69     71      9
    68     67     69     72      9
    74     67     69     70      9
    74     67     69     71      9
    74     67     69     72      9
    63     67     74     75      9
    68     67     74     75      9
    69     67     74     75      9
    67     69     72     73      9
    70     69     72     73      9
    71     69     72     73      9
    67     74     75     76      9
    67     74     75     79      9
    67     74     75     98      9
    74     75     76     77      9
    74     75     76     78      9
    79     75     76     77      9
    79     75     76     78      9
    98     75     76     77      9
    98     75     76     78      9
    74     75     79     80      9
    74     75     79     81      9
    74     75     79     82      9
    76     75     79     80      9
    76     75     79     81      9
    76     75     79     82      9
    98     75     79     80      9
    98     75     79     81      9
    98     75     79     82      9
    74     75     98     96      9
    76     75     98     96      9
    79     75     98     96      9
    75     79     82     83      9
    75     79     82     84      9
    75     79     82     86      9
    80     79     82     83      9
    80     79     82     84      9
    80     79     82     86      9
    81     79     82     83      9
    81     79     82     84      9
    81     79     82     86      9
    79     82     84     85      9
    83     82     84     85      9
    86     82     84     85      9
    79     82     86     87      9
    79     82     86     88      9
    79     82     86     96      9
    83     82     86     87      9
    83     82     86     88      9
    83     82     86     96      9
    84     82     86     87      9
    84     82     86     88      9
    84     82     86     96      9
    82     86     88     89      9
    82     86     88     90      9
    87     86     88     89      9
    87     86     88     90      9
    96     86     88     89      9
    96     86     88     90      9
    82     86     96     97      9
    82     86     96     98      9
    82     86     96     99      9
    87     86     96     97      9
    87     86     96     98      9
    87     86     96     99      9
    88     86     96     97      9
    88     86     96     98      9
    88     86     96     99      9
    86     88     90     91      9
    86     88     90     95      9
    89     88     90     91      9
    89     88     90     95      9
    88     90     91     92      9
    88     90     91     93      9
    88     90     91     94      9
    95     90     91     92      9
    95     90     91     93      9
    95     90     91     94      9
    86     96     98     75      9
    97     96     98     75      9
    99     96     98     75      9
    86     96     99    100      9
    86     96     99    101      9
    86     96     99    103      9
    97     96     99    100      9
    97     96     99    101      9
    97     96     99    103      9
    98     96     99    100      9
    98     96     99    101      9
    98     96     99    103      9
    96     99    101    102      9
   100     99    101    102      9
   103     99    101    102      9
    96     99    103    104      9
    96     99    103    105      9
    96     99    103    110      9
   100     99    103    104      9
   100     99    103    105      9
   100     99    103    110      9
   101     99    103    104      9
   101     99    103    105      9
   101     99    103    110      9
    99    103    105    106      9
    99    103    105    107      9
    99    103    105    108      9
   104    103    105    106      9
   104    103    105    107      9
   104    103    105    108      9
   110    103    105    106      9
   110    103    105    107      9
   110    103    105    108      9
    99    103    110    111      9
   104    103    110    111      9
   105    103    110    111      9
   103    105    108    109      9
   106    105    108    109      9
   107    105    108    109      9
   103    110    111    112      9
   103    110    111    115      9
   103    110    111    134      9
   110    111    112    113      9
   110    111    112    114      9
   115    111    112    113      9
   115    111    112    114      9
   134    111    112    113      9
   134    111    112    114      9
   110    111    115    116      9
   110    111    115    117      9
   110    111    115    118      9
   112    111    115    116      9
   112    111    115    117      9
   112    111    115    118      9
   134    111    115    116      9
   134    111    115    117      9
   134    111    115    118      9
   110    111    134    132      9
   112    111    134    132      9
   115    111    134    132      9
   111    115    118    119      9
   111    115    118    120      9
   111    115    118    122      9
   116    115    118    119      9
   116    115    118    120      9
   116    115    118    122      9
   117    115    118    119      9
   117    115    118    120      9
   117    115    118    122      9
   115    118    120    121      9
   119    118    120    121      9
   122    118    120    121      9
   115    118    122    123      9
   115    118    122    124      9
   115    118    122    132      9
   119    118    122    123      9
   119    118    122    124      9
   119    118    122    132      9
   120    118    122    123      9
   120    118    122    124      9
   120    118    122    132      9
   118    122    124    125      9
   118    122    124    126      9
   123    122    124    125      9
   123    122    124    126      9
   132    122    124    125      9
   132    122    124    126      9
   118    122    132    133      9
   118    122    132    134      9
   118    122    132    135      9
   123    122    132    133      9
   123    122    132    134      9
   123    122    132    135      9
   124    122    132    133      9
   124    122    132    134      9
   124    122    132    135      9
   122    124    126    127      9
   122    124    126    131      9
   125    124    126    127      9
   125    124    126    131      9
   124    126    127    128      9
   124    126    127    129      9
   124    126    127    130      9
   131    126    127    128      9
   131    126    127    129      9
   131    126    127    130      9
   122    132    134    111      9
   133    132    134    111      9
   135    132    134    111      9
   122    132    135    136      9
   122    132    135    137      9
   122    132    135    139      9
   133    132    135    136      9
   133    132    135    137      9
   133    132    135    139      9
   134    132    135    136      9
   134    132    135    137      9
   134    132    135    139      9
   132    135    137    138      9
   136    135    137    138      9
   139    135    137    138      9
   132    135    139    140      9
   132    135    139    141      9
   132    135    139    146      9
   136    135    139    140      9
   136    135    139    141      9
   136    135    139    146      9
   137    135    139    140      9
   137    135    139    141      9
   137    135    139    146      9
   135    139    141    142      9
   135    139    141    143      9
   135    139    141    144      9
   140    139    141    142      9
   140    139    141    143      9
   140    139    141    144      9
   146    139    141    142      9
   146    139    141    143      9
   146    139    141    144      9
   135    139    146    147      9
   140    139    146    147      9
   141    139    146    147      9
   139    141    144    145      9
   142    141    144    145      9
   143    141    144    145      9
   139    146    147    148      9
   139    146    147    151      9
   139    146    147    170      9
   146    147    148    149      9
   146    147    148    150      9
   151    147    148    149      9
   151    147    148    150      9
   170    147    148    149      9
   170    147    148    150      9
   146    147    151    152      9
   146    147    151    153      9
   146    147    151    154      9
   148    147    151    152      9
   148    147    151    153      9
   148    147    151    154      9
   170    147    151    152      9
   170    147    151    153      9
   170    147    151    154      9
   146    147    170    168      9
   148    147    170    168      9
   151    147    170    168      9
   147    151    154    155      9
   147    151    154    156      9
   147    151    154    158      9
   152    151    154    155      9
   152    151    154    156      9
   152    151    154    158      9
   153    151    154    155      9
   153    151    154    156      9
   153    151    154    158      9
   151    154    156    157      9
   155    154    156    157      9
   158    154    156    157      9
   151    154    158    159      9
   151    154    158    160      9
   151    154    158    168      9
   155    154    158    159      9
   155    154    158    160      9
   155    154    158    168      9
   156    154    158    159      9
   156    154    158    160      9
   156    154    158    168      9
   154    158    160    161      9
   154    158    160    162      9
   159    158    160    161      9
   159    158    160    162      9
   168    158    160    161      9
   168    158    160    162      9
   154    158    168    169      9
   154    158    168    170      9
   154    158    168    171      9
   159    158    168    169      9
   159    158    168    170      9
   159    158    168    171      9
   160    158    168    169      9
   160    158    168    170      9
   160    158    168    171      9
   158    160    162    163      9
   158    160    162    167      9
   161    160    162    163      9
   161    160    162    167      9
   160    162    163    164      9
   160    162    163    165      9
   160    162    163    166      9
   167    162    163    164      9
   167    162    163    165      9
   167    162    163    166      9
   158    168    170    147      9
   169    168    170    147      9
   171    168    170    147      9
   158    168    171    172      9
   158    168    171    173      9
   158    168    171    175      9
   169    168    171    172      9
   169    168    171    173      9
   169    168    171    175      9
   170    168    171    172      9
   170    168    171    173      9
   170    168    171    175      9
   168    171    173    174      9
   172    171    173    174      9
   175    171    173    174      9
   168    171    175    176      9
   168    171    175    177      9
   168    171    175    182      9
   172    171    175    176      9
   172    171    175    177      9
   172    171    175    182      9
   173    171    175    176      9
   173    171    175    177      9
   173    171    175    182      9
   171    175    177    178      9
   171    175    177    179      9
   171    175    177    180      9
   176    175    177    178      9
   176    175    177    179      9
   176    175    177    180      9
   182    175    177    178      9
   182    175    177    179      9
   182    175    177    180      9
   171    175    182    183      9
   176    175    182    183      9
   177    175    182    183      9
   175    177    180    181      9
   178    177    180    181      9
   179    177    180    181      9
   175    182    183    184      9
   175    182    183    187      9
   175    182    183    206      9
   182    183    184    185      9
   182    183    184    186      9
   187    183    184    185      9
   187    183    184    186      9
   206    183    184    185      9
   206    183    184    186      9
   182    183    187    188      9
   182    183    187    189      9
   182    183    187    190      9
   184    183    187    188      9
   184    183    187    189      9
   184    183    187    190      9
   206    183    187    188      9
   206    183    187    189      9
   206    183    187    190      9
   182    183    206    204      9
   184    183    206    204      9
   187    183    206    204      9
   183    187    190    191      9
   183    187    190    192      9
   183    187    190    194      9
   188    187    190    191      9
   188    187    190    192      9
   188    187    190    194      9
   189    187    190    191      9
   189    187    190    192      9
   189    187    190    194      9
   187    190    192    193      9
   191    190    192    193      9
   194    190    192    193      9
   187    190    194    195      9
   187    190    194    196      9
   187    190    194    204      9
   191    190    194    195      9
   191    190    194    196      9
   191    190    194    204      9
   192    190    194    195      9
   192    190    194    196      9
   192    190    194    204      9
   190    194    196    197      9
   190    194    196    198      9
   195    194    196    197      9
   195    194    196    198      9
   204    194    196    197      9
   204    194    196    198      9
   190    194    204    205      9
   190    194    204    206      9
   190    194    204    207      9
   195    194    204    205      9
   195    194    204    206      9
   195    194    204    207      9
   196    194    204    205      9
   196    194    204    206      9
   196    194    204    207      9
   194    196    198    199      9
   194    196    198    203      9
   197    196    198    199      9
   197    196    198    203      9
   196    198    199    200      9
   196    198    199    201      9
   196    198    199    202      9
   203    198    199    200      9
   203    198    199    201      9
   203    198    199    202      9
   194    204    206    183      9
   205    204    206    183      9
   207    204    206    183      9
   194    204    207    208      9
   194    204    207    209      9
   194    204    207    211      9
   205    204    207    208      9
   205    204    207    209      9
   205    204    207    211      9
   206    204    207    208      9
   206    204    207    209      9
   206    204    207    211      9
   204    207    209    210      9
   208    207    209    210      9
   211    207    209    210      9
   204    207    211    212      9
   204    207    211    213      9
   204    207    211    218      9
   208    207    211    212      9
   208    207    211    213      9
   208    207    211    218      9
   209    207    211    212      9
   209    207    211    213      9
   209    207    211    218      9
   207    211    213    214      9
   207    211    213    215      9
   207    211    213    216      9
   212    211    213    214      9
   212    211    213    215      9
   212    211    213    216      9
   218    211    213    214      9
   218    211    213    215      9
   218    211    213    216      9
   207    211    218    219      9
   212    211    218    219      9
   213    211    218    219      9
   211    213    216    217      9
   214    213    216    217      9
   215    213    216    217      9
   211    218    219    220      9
   211    218    219    223      9
   211    218    219    242      9
   218    219    220    221      9
   218    219    220    222      9
   223    219    220    221      9
   223    219    220    222      9
   242    219    220    221      9
   242    219    220    222      9
   218    219    223    224      9
   218    219    223    225      9
   218    219    223    226      9
   220    219    223    224      9
   220    219    223    225      9
   220    219    223    226      9
   242    219    223    224      9
   242    219    223    225      9
   242    219    223    226      9
   218    219    242    240      9
   220    219    242    240      9
   223    219    242    240      9
   219    223    226    227      9
   219    223    226    228      9
   219    223    226    230      9
   224    223    226    227      9
   224    223    226    228      9
   224    223    226    230      9
   225    223    226    227      9
   225    223    226    228      9
   225    223    226    230      9
   223    226    228    229      9
   227    226    228    229      9
   230    226    228    229      9
   223    226    230    231      9
   223    226    230    232      9
   223    226    230    240      9
   227    226    230    231      9
   227    226    230    232      9
   227    226    230    240      9
   228    226    230    231      9
   228    226    230    232      9
   228    226    230    240      9
   226    230    232    233      9
   226    230    232    234      9
   231    230    232    233      9
   231    230    232    234      9
   240    230    232    233      9
   240    230    232    234      9
   226    230    240    241      9
   226    230    240    242      9
   226    230    240    243      9
   231    230    240    241      9
   231    230    240    242      9
   231    230    240    243      9
   232    230    240    241      9
   232    230    240    242      9
   232    230    240    243      9
   230    232    234    235      9
   230    232    234    239      9
   233    232    234    235      9
   233    232    234    239      9
   232    234    235    236      9
   232    234    235    237      9
   232    234    235    238      9
   239    234    235    236      9
   239    234    235    237      9
   239    234    235    238      9
   230    240    242    219      9
   241    240    242    219      9
   243    240    242    219      9
   230    240    243    244      9
   230    240    243    245      9
   230    240    243    247      9
   241    240    243    244      9
   241    240    243    245      9
   241    240    243    247      9
   242    240    243    244      9
   242    240    243    245      9
   242    240    243    247      9
   240    243    245    246      9
   244    243    245    246      9
   247    243    245    246      9
   240    243    247    248      9
   240    243    247    249      9
   240    243    247    254      9
   244    243    247    248      9
   244    243    247    249      9
   244    243    247    254      9
   245    243    247    248      9
   245    243    247    249      9
   245    243    247    254      9
   243    247    249    250      9
   243    247    249    251      9
   243    247    249    252      9
   248    247    249    250      9
   248    247    249    251      9
   248    247    249    252      9
   254    247    249    250      9
   254    247    249    251      9
   254    247    249    252      9
   243    247    254    255      9
   248    247    254    255      9
   249    247    254    255      9
   247    249    252    253      9
   250    249    252    253      9
   251    249    252    253      9
   247    254    255    256      9
   247    254    255    259      9
   247    254    255    278      9
   254    255    256    257      9
   254    255    256    258      9
   259    255    256    257      9
   259    255    256    258      9
   278    255    256    257      9
   278    255    256    258      9
   254    255    259    260      9
   254    255    259    261      9
   254    255    259    262      9
   256    255    259    260      9
   256    255    259    261      9
   256    255    259    262      9
   278    255    259    260      9
   278    255    259    261      9
   278    255    259    262      9
   254    255    278    276      9
   256    255    278    276      9
   259    255    278    276      9
   255    259    262    263      9
   255    259    262    264      9
   255    259    262    266      9
   260    259    262    263      9
   260    259    262    264      9
   260    259    262    266      9
   261    259    262    263      9
   261    259    262    264      9
   261    259    262    266      9
   259    262    264    265      9
   263    262    264    265      9
   266    262    264    265      9
   259    262    266    267      9
   259    262    266    268      9
   259    262    266    276      9
   263    262    266    267      9
   263    262    266    268      9
   263    262    266    276      9
   264    262    266    267      9
   264    262    266    268      9
   264    262    266    276      9
   262    266    268    269      9
   262    266    268    270      9
   267    266    268    269      9
   267    266    268    270      9
   276    266    268    269      9
   276    266    268    270      9
   262    266    276    277      9
   262    266    276    278      9
   262    266    276    279      9
   267    266    276    277      9
   267    266    276    278      9
   267    266    276    279      9
   268    266    276    277      9
   268    266    276    278      9
   268    266    276    279      9
   266    268    270    271      9
   266    268    270    275      9
   269    268    270    271      9
   269    268    270    275      9
   268    270    271    272      9
   268    270    271    273      9
   268    270    271    274      9
   275    270    271    272      9
   275    270    271    273      9
   275    270    271    274      9
   266    276    278    255      9
   277    276    278    255      9
   279    276    278    255      9
   266    276    279    280      9
   266    276    279    281      9
   266    276    279    283      9
   277    276    279    280      9
   277    276    279    281      9
   277    276    279    283      9
   278    276    279    280      9
   278    276    279    281      9
   278    276    279    283      9
   276    279    281    282      9
   280    279    281    282      9
   283    279    281    282      9
   276    279    283    284      9
   276    279    283    285      9
   276    279    283    290      9
   280    279    283    284      9
   280    279    283    285      9
   280    279    283    290      9
   281    279    283    284      9
   281    279    283    285      9
   281    279    283    290      9
   279    283    285    286      9
   279    283    285    287      9
   279    283    285    288      9
   284    283    285    286      9
   284    283    285    287      9
   284    283    285    288      9
   290    283    285    286      9
   290    283    285    287      9
   290    283    285    288      9
   279    283    290    291      9
   284    283    290    291      9
   285    283    290    291      9
   283    285    288    289      9
   286    285    288    289      9
   287    285    288    289      9
   283    290    291    292      9
   283    290    291    295      9
   283    290    291    314      9
   290    291    292    293      9
   290    291    292    294      9
   295    291    292    293      9
   295    291    292    294      9
   314    291    292    293      9
   314    291    292    294      9
   290    291    295    296      9
   290    291    295    297      9
   290    291    295    298      9
   292    291    295    296      9
   292    291    295    297      9
   292    291    295    298      9
   314    291    295    296      9
   314    291    295    297      9
   314    291    295    298      9
   290    291    314    312      9
   292    291    314    312      9
   295    291    314    312      9
   291    295    298    299      9
   291    295    298    300      9
   291    295    298    302      9
   296    295    298    299      9
   296    295    298    300      9
   296    295    298    302      9
   297    295    298    299      9
   297    295    298    300      9
   297    295    298    302      9
   295    298    300    301      9
   299    298    300    301      9
   302    298    300    301      9
   295    298    302    303      9
   295    298    302    304      9
   295    298    302    312      9
   299    298    302    303      9
   299    298    302    304      9
   299    298    302    312      9
   300    298    302    303      9
   300    298    302    304      9
   300    298    302    312      9
   298    302    304    305      9
   298    302    304    306      9
   303    302    304    305      9
   303    302    304    306      9
   312    302    304    305      9
   312    302    304    306      9
   298    302    312    313      9
   298    302    312    314      9
   298    302    312    315      9
   303    302    312    313      9
   303    302    312    314      9
   303    302    312    315      9
   304    302    312    313      9
   304    302    312    314      9
   304    302    312    315      9
   302    304    306    307      9
   302    304    306    311      9
   305    304    306    307      9
   305    304    306    311      9
   304    306    307    308      9
   304    306    307    309      9
   304    306    307    310      9
   311    306    307    308      9
   311    306    307    309      9
   311    306    307    310      9
   302    312    314    291      9
   313    312    314    291      9
   315    312    314    291      9
   302    312    315    316      9
   302    312    315    317      9
   302    312    315    319      9
   313    312    315    316      9
   313    312    315    317      9
   313    312    315    319      9
   314    312    315    316      9
   314    312    315    317      9
   314    312    315    319      9
   312    315    317    318      9
   316    315    317    318      9
   319    315    317    318      9
   312    315    319    320      9
   312    315    319    321      9
   312    315    319    326      9
   316    315    319    320      9
   316    315    319    321      9
   316    315    319    326      9
   317    315    319    320      9
   317    315    319    321      9
   317    315    319    326      9
   315    319    321    322      9
   315    319    321    323      9
   315    319    321    324      9
   320    319    321    322      9
   320    319    321    323      9
   320    319    321    324      9
   326    319    321    322      9
   326    319    321    323      9
   326    319    321    324      9
   315    319    326    327      9
   320    319    326    327      9
   321    319    326    327      9
   319    321    324    325      9
   322    321    324    325      9
   323    321    324    325      9
   319    326    327    328      9
   319    326    327    331      9
   319    326    327    353      9
   326    327    328    329      9
   326    327    328    330      9
   331    327    328    329      9
   331    327    328    330      9
   353    327    328    329      9
   353    327    328    330      9
   326    327    331    332      9
   326    327    331    333      9
   326    327    331    334      9
   328    327    331    332      9
   328    327    331    333      9
   328    327    331    334      9
   353    327    331    332      9
   353    327    331    333      9
   353    327    331    334      9
   326    327    353    338      9
   328    327    353    338      9
   331    327    353    338      9
   327    331    334    335      9
   327    331    334    336      9
   327    331    334    362      9
   332    331    334    335      9
   332    331    334    336      9
   332    331    334    362      9
   333    331    334    335      9
   333    331    334    336      9
   333    331    334    362      9
   331    334    336    337      9
   331    334    336    338      9
   331    334    336    354      9
   335    334    336    337      9
   335    334    336    338      9
   335    334    336    354      9
   362    334    336    337      9
   362    334    336    338      9
   362    334    336    354      9
   331    334    362    363      9
   335    334    362    363      9
   336    334    362    363      9
   334    336    338    339      9
   334    336    338    340      9
   334    336    338    353      9
   337    336    338    339      9
   337    336    338    340      9
   337    336    338    353      9
   354    336    338    339      9
   354    336    338    340      9
   354    336    338    353      9
   334    336    354    355      9
   334    336    354    356      9
   337    336    354    355      9
   337    336    354    356      9
   338    336    354    355      9
   338    336    354    356      9
   336    338    340    341      9
   336    338    340    342      9
   336    338    340    351      9
   339    338    340    341      9
   339    338    340    342      9
   339    338    340    351      9
   353    338    340    341      9
   353    338    340    342      9
   353    338    340    351      9
   336    338    353    327      9
   339    338    353    327      9
   340    338    353    327      9
   338    340    342    343      9
   338    340    342    344      9
   338    340    342    349      9
   341    340    342    343      9
   341    340    342    344      9
   341    340    342    349      9
   351    340    342    343      9
   351    340    342    344      9
   351    340    342    349      9
   338    340    351    352      9
   341    340    351    352      9
   342    340    351    352      9
   340    342    344    345      9
   340    342    344    346      9
   340    342    344    347      9
   343    342    344    345      9
   343    342    344    346      9
   343    342    344    347      9
   349    342    344    345      9
   349    342    344    346      9
   349    342    344    347      9
   340    342    349    350      9
   343    342    349    350      9
   344    342    349    350      9
   342    344    347    348      9
   345    344    347    348      9
   346    344    347    348      9
   336    354    356    357      9
   336    354    356    361      9
   355    354    356    357      9
   355    354    356    361      9
   354    356    357    358      9
   354    356    357    359      9
   354    356    357    360      9
   361    356    357    358      9
   361    356    357    359      9
   361    356    357    360      9

[ dihedrals ]
;   ai     aj     ak     al  funct
     3      5      4      6      4
    18     17     16     14      4
    19     16     18     23      4
    39     41     40     42      4
    54     53     52     50      4
    55     52     54     59      4
    75     77     76     78      4
    90     89     88     86      4
    91     88     90     95      4
   111    113    112    114      4
   126    125    124    122      4
   127    124    126    131      4
   147    149    148    150      4
   162    161    160    158      4
   163    160    162    167      4
   183    185    184    186      4
   198    197    196    194      4
   199    196    198    203      4
   219    221    220    222      4
   234    233    232    230      4
   235    232    234    239      4
   255    257    256    258      4
   270    269    268    266      4
   271    268    270    275      4
   291    293    292    294      4
   306    305    304    302      4
   307    304    306    311      4
   327    329    328    330      4
   356    355    354    336      4
   357    354    356    361      4

