
; VARIOUS PREPROCESSING OPTIONS 
title                   = NVT EQUI FOR CHARMM36 100 ps T=300 K


; RUN CONTROL PARAMETERS 
integrator              = md        ; leap-frog integrator
nsteps                  = 50000     ; 2 * 50000 = 100 ps
dt                      = 0.002     ; 2 fs

; OUTPUT CONTROL
nstxout                 = 1000       ; save coordinates every 1.0 ps
nstvout                 = 1000       ; save velocities every 1.0 ps
nstenergy               = 1000       ; save energies every 1.0 ps
nstlog                  = 1000       ; update log file every 1.0 ps

; CONSTRAINS 
continuation            = no        ; first dynamics run
constraint_algorithm    = lincs     ; holonomic constraints 
constraints             = h-bonds   ; bonds involving H are constrained
lincs_iter              = 1         ; accuracy of LINCS
lincs_order             = 4         ; also related to accuracy
nstcomm                 = 100
comm_mode               = linear
;comm_grps               = SOLU SOLV


; NONBONDEND INTERACTIONS 
cutoff-scheme           = Verlet    ; Buffered neighbor searching
ns_type                 = grid      ; search neighboring grid cells
nstlist                 = 20        ; 20 fs, largely irrelevant with Verlet
rcoulomb                = 1.2       ; short-range electrostatic cutoff (in nm)
rvdw                    = 1.2       ; short-range van der Waals cutoff (in nm)
DispCorr                = EnerPres  ; account for cut-off vdW scheme
vdw-modifier            = Force-switch
vdwtype                 = Cut-off
rvdw_switch             = 1.0

; ELECTROSTATIC
coulombtype             = PME       ; Particle Mesh Ewald for long-range electrostatics

; TEMPERATURE CONTROLL


tcoupl                  = V-rescale             ; modified Berendsen thermostat
tc-grps                 = Protein non-Protein   ; two coupling groups - more accurate
tau_t                   = 0.1	0.1	                   ; time constant, in ps
ref_t                   = 300	300	                   ; reference temperature, one for each group, in K



; PERIODIC BOUNDARY CONDITIONS
pbc                     = xyz       ; 3-D PBC

; VELOCITIES GENERATION
gen_vel                 = yes       ; assign velocities from Maxwell distribution
gen_temp                = 300       ; temperature for Maxwell distribution
gen_seed                = -1        ; generate a random seed
